ITEM: TIMESTEP
0
ITEM: NUMBER OF ATOMS
1200
ITEM: BOX BOUNDS pp pp pp
0.0000000000000000e+00 3.5856859999999998e+01
0.0000000000000000e+00 3.5856859999999998e+01
-1.0000000000000001e-01 1.0000000000000001e-01
ITEM: ATOMS id type xs ys zs
1144 4 0.0361124 0.0211147 0.5
1143 3 0.0331079 0.00261732 0.5
881 2 0.000939757 0.011032 0.5
636 1 0.0016436 0.0388624 0.5
671 1 0.065338 0.0120026 0.5
348 1 0.058876 0.0398065 0.5
456 1 0.0886471 0.0292564 0.5
873 1 0.095079 0.000127705 0.5
1158 4 0.120656 0.0248831 0.5
543 1 0.147759 0.0149585 0.5
68 1 0.199456 0.00160551 0.5
166 1 0.17733 0.0208478 0.5
160 1 0.214317 0.0266216 0.5
129 2 0.240787 0.00577041 0.5
905 3 0.25851 0.00864699 0.5
906 4 0.272413 0.0226988 0.5
490 1 0.243944 0.0385641 0.5
247 2 0.305252 0.0168791 0.5
1079 3 0.322947 0.0222831 0.5
1080 4 0.341886 0.0135689 0.5
929 3 0.367749 0.0315552 0.5
930 4 0.373347 0.0144914 0.5
16 1 0.409331 0.0137972 0.5
428 1 0.436482 0.0297272 0.5
862 1 0.469356 0.025633 0.5
252 1 0.453682 0.00103456 0.5
359 1 0.491961 0.00396063 0.5
866 1 0.515118 0.0259372 0.5
170 1 0.544872 0.012202 0.5
81 1 0.57784 0.0121853 0.5
554 1 0.631093 0.021516 0.5
88 1 0.60078 0.0308026 0.5
857 1 0.663401 0.0280645 0.5
290 1 0.69355 0.0313529 0.5
105 1 0.722479 0.0137567 0.5
201 2 0.750269 0.0278888 0.5
143 1 0.764492 0.00451834 0.5
2 1 0.781064 0.0295912 0.5
897 2 0.793642 0.00295555 0.5
805 1 0.811119 0.0272954 0.5
1110 4 0.840224 0.00988961 0.5
1109 3 0.853736 0.0235788 0.5
714 2 0.869126 0.0115383 0.5
594 1 0.902771 0.0177291 0.5
567 1 0.933052 0.0192478 0.5
990 4 0.963076 0.0207915 0.5
989 3 0.982813 0.0166626 0.5
190 1 0.0273599 0.0540745 0.5
858 1 0.00345837 0.0706832 0.5
5 1 0.0522858 0.0699341 0.5
1157 3 0.113519 0.0458887 0.5
103 2 0.11728 0.0658987 0.5
308 1 0.0822327 0.0594866 0.5
169 1 0.160142 0.0491875 0.5
424 1 0.191458 0.0486047 0.5
20 1 0.179081 0.0747191 0.5
580 1 0.220658 0.0635069 0.5
887 1 0.262751 0.0648079 0.5
1134 4 0.290292 0.0447494 0.5
1133 3 0.308202 0.0511699 0.5
109 2 0.319122 0.0655539 0.5
79 1 0.289887 0.0754139 0.5
604 2 0.345955 0.050707 0.5
973 3 0.349131 0.069424 0.5
192 2 0.381398 0.0499103 0.5
974 4 0.36435 0.075526 0.5
158 1 0.399758 0.0747978 0.5
884 1 0.411716 0.0481194 0.5
874 1 0.430055 0.0711736 0.5
314 1 0.455642 0.0540414 0.5
138 1 0.488804 0.0464261 0.5
115 1 0.482188 0.0737636 0.5
104 1 0.51787 0.0632562 0.5
853 1 0.538457 0.0448443 0.5
1075 3 0.547199 0.0732831 0.5
108 1 0.568036 0.0431295 0.5
198 1 0.592374 0.060733 0.5
955 3 0.623663 0.0529146 0.5
956 4 0.624177 0.0764808 0.5
860 2 0.644527 0.0488812 0.5
84 1 0.677402 0.0549154 0.5
352 1 0.709272 0.0635899 0.5
29 1 0.725087 0.04187 0.5
1115 3 0.755365 0.046632 0.5
896 1 0.739981 0.068798 0.5
1116 4 0.770067 0.0578736 0.5
52 1 0.798676 0.054959 0.5
836 1 0.832541 0.0466492 0.5
838 1 0.822769 0.0749417 0.5
975 3 0.868475 0.05051 0.5
976 4 0.85522 0.0667633 0.5
125 2 0.887777 0.046555 0.5
848 1 0.916948 0.044515 0.5
86 2 0.885516 0.0770537 0.5
234 1 0.916303 0.0733247 0.5
331 1 0.944065 0.0497896 0.5
242 1 0.972786 0.0541017 0.5
67 1 0.0264632 0.0868301 0.5
70 1 0.0235677 0.117325 0.5
607 1 0.0535881 0.104598 0.5
164 2 0.0831524 0.0945172 0.5
1171 3 0.100289 0.100717 0.5
1172 4 0.119233 0.0978376 0.5
72 1 0.145595 0.0816076 0.5
960 4 0.146371 0.111452 0.5
298 1 0.178198 0.10749 0.5
100 2 0.207949 0.0904443 0.5
1141 3 0.210001 0.108582 0.5
733 1 0.237932 0.0892093 0.5
196 1 0.268893 0.0976972 0.5
763 1 0.29456 0.108309 0.5
135 1 0.323469 0.0943139 0.5
187 1 0.356044 0.110989 0.5
345 1 0.386364 0.10414 0.5
45 1 0.416773 0.0961841 0.5
722 1 0.436995 0.11941 0.5
437 2 0.452177 0.0900063 0.5
1059 3 0.464517 0.105292 0.5
771 1 0.50605 0.0902388 0.5
1060 4 0.481188 0.113367 0.5
1076 4 0.536774 0.09051 0.5
772 2 0.566226 0.0832105 0.5
317 2 0.598492 0.0934405 0.5
95 1 0.573537 0.115957 0.5
963 3 0.603082 0.113188 0.5
883 1 0.632453 0.104759 0.5
97 1 0.654807 0.08067 0.5
925 3 0.676626 0.102135 0.5
769 2 0.662001 0.113159 0.5
926 4 0.688244 0.0872969 0.5
865 1 0.719223 0.0916645 0.5
202 1 0.69944 0.119384 0.5
119 1 0.756469 0.0948901 0.5
24 2 0.728775 0.119922 0.5
235 1 0.788157 0.0832927 0.5
688 1 0.784392 0.115013 0.5
11 1 0.811272 0.10355 0.5
629 1 0.842739 0.0969948 0.5
994 4 0.873757 0.106722 0.5
993 3 0.888805 0.0972622 0.5
162 2 0.944801 0.080899 0.5
1107 3 0.936604 0.100805 0.5
1108 4 0.921902 0.113171 0.5
891 1 0.977068 0.0858644 0.5
37 1 0.994365 0.111011 0.5
537 1 0.965414 0.116916 0.5
911 3 0.00775875 0.142163 0.5
912 4 0.0206175 0.155528 0.5
7 1 0.0479748 0.134814 0.5
34 1 0.074541 0.154652 0.5
815 1 0.0859842 0.126406 0.5
817 1 0.116313 0.129013 0.5
849 1 0.103156 0.155244 0.5
959 3 0.15574 0.131114 0.5
539 1 0.134368 0.156541 0.5
244 1 0.196055 0.154833 0.5
159 2 0.162837 0.14907 0.5
1142 4 0.201326 0.127729 0.5
854 2 0.228242 0.141807 0.5
1053 3 0.239495 0.123551 0.5
1054 4 0.257772 0.125703 0.5
26 1 0.260996 0.15648 0.5
1192 4 0.291463 0.137687 0.5
1191 3 0.301784 0.151849 0.5
102 1 0.320696 0.122976 0.5
393 1 0.346128 0.140331 0.5
245 2 0.322607 0.155932 0.5
13 1 0.37516 0.132893 0.5
342 1 0.407152 0.124148 0.5
1118 4 0.400628 0.151543 0.5
313 1 0.432445 0.149181 0.5
1154 4 0.462121 0.146387 0.5
180 1 0.511399 0.12152 0.5
107 1 0.492018 0.148582 0.5
36 1 0.543075 0.120283 0.5
227 1 0.527471 0.14652 0.5
320 1 0.558873 0.147225 0.5
798 1 0.589005 0.14225 0.5
964 4 0.616418 0.132388 0.5
139 1 0.648869 0.147245 0.5
145 1 0.679566 0.139708 0.5
1120 4 0.708359 0.147213 0.5
1119 3 0.729884 0.138166 0.5
412 1 0.759749 0.127315 0.5
172 1 0.777859 0.150953 0.5
231 1 0.804833 0.13808 0.5
210 1 0.835495 0.125057 0.5
385 1 0.828367 0.153716 0.5
142 1 0.859066 0.144599 0.5
174 1 0.889718 0.131321 0.5
186 1 0.916742 0.146321 0.5
31 1 0.942386 0.13222 0.5
238 2 0.989057 0.138537 0.5
92 1 0.963831 0.154391 0.5
213 1 0.0242778 0.186534 0.5
64 1 0.0497148 0.169544 0.5
510 2 0.074155 0.186976 0.5
1146 4 0.111436 0.182683 0.5
1145 3 0.0949885 0.187263 0.5
212 1 0.141645 0.185394 0.5
430 1 0.167958 0.180165 0.5
306 2 0.196471 0.187825 0.5
223 1 0.223047 0.170942 0.5
1167 3 0.209995 0.19906 0.5
250 1 0.251358 0.184415 0.5
191 1 0.284474 0.175255 0.5
824 1 0.31592 0.189088 0.5
280 1 0.34949 0.18685 0.5
341 1 0.371518 0.163048 0.5
284 2 0.395719 0.183067 0.5
1117 3 0.406415 0.168783 0.5
435 1 0.434884 0.179415 0.5
1153 3 0.462968 0.167584 0.5
526 2 0.481089 0.177338 0.5
111 1 0.509908 0.173513 0.5
373 1 0.53992 0.175807 0.5
390 1 0.57052 0.177934 0.5
230 2 0.600315 0.174196 0.5
1093 3 0.611857 0.165269 0.5
1094 4 0.630045 0.170786 0.5
33 2 0.658364 0.180526 0.5
1125 3 0.674417 0.168716 0.5
225 1 0.719453 0.172421 0.5
1126 4 0.690226 0.173436 0.5
203 1 0.709489 0.199073 0.5
200 1 0.750434 0.161735 0.5
177 1 0.744667 0.191008 0.5
120 1 0.775816 0.181642 0.5
206 1 0.803039 0.168271 0.5
91 1 0.826312 0.190784 0.5
35 2 0.851423 0.172617 0.5
1049 3 0.864641 0.190993 0.5
8 1 0.885797 0.163491 0.5
1050 4 0.881873 0.194008 0.5
209 1 0.909628 0.182437 0.5
330 1 0.93732 0.170054 0.5
222 1 0.991175 0.168634 0.5
66 1 0.966383 0.185227 0.5
126 1 0.992111 0.198907 0.5
948 4 0.0158102 0.214684 0.5
947 3 0.0300217 0.227847 0.5
254 1 0.0485695 0.202049 0.5
333 2 0.0753135 0.216698 0.5
117 1 0.0590974 0.238541 0.5
595 1 0.117067 0.21462 0.5
1007 3 0.0901877 0.232198 0.5
361 1 0.148642 0.220387 0.5
241 1 0.177287 0.213703 0.5
1168 4 0.225349 0.211202 0.5
275 2 0.20082 0.232361 0.5
39 1 0.254559 0.216316 0.5
239 1 0.284562 0.210766 0.5
219 1 0.316268 0.218024 0.5
752 1 0.348644 0.22431 0.5
155 1 0.37399 0.206914 0.5
396 1 0.376857 0.236979 0.5
745 1 0.419042 0.206672 0.5
257 2 0.406646 0.236102 0.5
551 1 0.457874 0.200271 0.5
229 1 0.440154 0.224409 0.5
310 2 0.477641 0.230816 0.5
382 1 0.493213 0.201873 0.5
984 4 0.519363 0.237624 0.5
259 1 0.520937 0.206367 0.5
767 1 0.552185 0.202521 0.5
94 1 0.581867 0.206317 0.5
296 1 0.564076 0.231384 0.5
182 1 0.59843 0.230596 0.5
381 1 0.613729 0.203197 0.5
141 1 0.627662 0.232028 0.5
153 1 0.643686 0.205389 0.5
122 1 0.673394 0.204428 0.5
208 1 0.656977 0.233726 0.5
255 1 0.694795 0.225847 0.5
1046 4 0.731026 0.222993 0.5
1045 3 0.752471 0.21853 0.5
237 1 0.798963 0.201124 0.5
294 2 0.768532 0.217416 0.5
985 3 0.797042 0.235093 0.5
986 4 0.81427 0.229598 0.5
301 1 0.840529 0.214466 0.5
1005 3 0.866138 0.238705 0.5
1006 4 0.871605 0.221326 0.5
276 1 0.909706 0.212497 0.5
844 1 0.936128 0.200131 0.5
776 1 0.932661 0.230677 0.5
624 1 0.961078 0.217264 0.5
214 1 0.990923 0.228189 0.5
65 2 0.017965 0.2446 0.5
267 1 0.040086 0.263526 0.5
895 1 0.0690062 0.269351 0.5
1008 4 0.094289 0.249791 0.5
334 1 0.116578 0.271978 0.5
449 1 0.127334 0.245064 0.5
485 1 0.149333 0.264256 0.5
1036 4 0.170838 0.241262 0.5
1035 3 0.185633 0.250167 0.5
184 1 0.176048 0.278398 0.5
85 1 0.210013 0.271542 0.5
491 1 0.227524 0.247863 0.5
1123 3 0.274607 0.240555 0.5
1124 4 0.25775 0.251631 0.5
282 1 0.240046 0.27561 0.5
790 1 0.27742 0.272283 0.5
455 2 0.293245 0.244923 0.5
38 2 0.312253 0.272938 0.5
99 1 0.328025 0.246931 0.5
546 1 0.358397 0.259548 0.5
1077 3 0.332271 0.278572 0.5
216 1 0.387464 0.263118 0.5
1021 3 0.420025 0.247369 0.5
1022 4 0.416912 0.267922 0.5
53 1 0.450681 0.256512 0.5
1102 4 0.482125 0.261016 0.5
1101 3 0.489679 0.246543 0.5
195 1 0.514264 0.268625 0.5
983 3 0.537522 0.244014 0.5
328 2 0.551244 0.25698 0.5
30 1 0.585863 0.258274 0.5
178 1 0.615403 0.26027 0.5
269 1 0.644632 0.258127 0.5
199 1 0.66985 0.279208 0.5
116 2 0.71405 0.249429 0.5
353 1 0.681153 0.251447 0.5
997 3 0.731051 0.258243 0.5
998 4 0.749417 0.248228 0.5
291 1 0.760524 0.27607 0.5
869 2 0.782126 0.251359 0.5
292 1 0.821282 0.262328 0.5
151 2 0.847846 0.244539 0.5
175 2 0.849017 0.277931 0.5
1189 3 0.864625 0.268466 0.5
1190 4 0.887123 0.267009 0.5
843 1 0.903485 0.241171 0.5
40 2 0.952027 0.254907 0.5
127 2 0.921649 0.26588 0.5
1033 3 0.934325 0.27678 0.5
1087 3 0.970421 0.249619 0.5
1088 4 0.987454 0.25922 0.5
675 1 0.00575393 0.313085 0.5
414 1 0.0283273 0.295471 0.5
1159 3 0.0489624 0.315051 0.5
561 2 0.0569616 0.297691 0.5
265 1 0.0914031 0.288147 0.5
336 1 0.113366 0.306408 0.5
1178 4 0.0821945 0.316532 0.5
488 1 0.140065 0.291218 0.5
633 1 0.195445 0.30223 0.5
904 4 0.164885 0.30887 0.5
628 1 0.231956 0.308911 0.5
338 1 0.26137 0.30304 0.5
461 1 0.292338 0.296778 0.5
1078 4 0.325458 0.298594 0.5
995 3 0.357047 0.301914 0.5
157 2 0.34942 0.318473 0.5
996 4 0.370393 0.287645 0.5
283 1 0.40462 0.294548 0.5
370 1 0.435611 0.293538 0.5
312 1 0.466218 0.286539 0.5
384 1 0.455069 0.317262 0.5
171 1 0.482186 0.319321 0.5
44 1 0.498884 0.29613 0.5
704 1 0.519334 0.318168 0.5
62 1 0.534983 0.288245 0.5
439 1 0.551973 0.3172 0.5
130 1 0.565843 0.290483 0.5
149 1 0.598222 0.286344 0.5
557 1 0.585716 0.318394 0.5
316 1 0.628518 0.285648 0.5
980 4 0.614967 0.307722 0.5
924 4 0.650038 0.30969 0.5
1121 3 0.699655 0.287521 0.5
420 2 0.716957 0.286491 0.5
1122 4 0.69292 0.307121 0.5
1137 3 0.755553 0.313683 0.5
1138 4 0.739703 0.300778 0.5
63 2 0.774588 0.303293 0.5
321 1 0.795839 0.281421 0.5
295 1 0.823049 0.293031 0.5
90 1 0.807825 0.319068 0.5
872 1 0.850755 0.309822 0.5
335 1 0.877959 0.297195 0.5
270 1 0.90779 0.295593 0.5
1034 4 0.940218 0.296192 0.5
183 1 0.999006 0.284371 0.5
156 1 0.96665 0.28278 0.5
879 1 0.976053 0.310888 0.5
1160 4 0.0325194 0.329885 0.5
309 2 0.0173456 0.35648 0.5
899 1 0.0616985 0.342314 0.5
1177 3 0.0948727 0.330822 0.5
1 2 0.112898 0.339593 0.5
472 1 0.0869064 0.35747 0.5
96 1 0.137475 0.324438 0.5
287 1 0.13671 0.357823 0.5
903 3 0.178108 0.330309 0.5
460 2 0.163952 0.340597 0.5
576 1 0.211208 0.331521 0.5
967 3 0.241992 0.344997 0.5
240 2 0.258862 0.331343 0.5
730 1 0.277267 0.356194 0.5
132 1 0.292058 0.330379 0.5
421 1 0.324927 0.331818 0.5
482 1 0.354738 0.348564 0.5
876 2 0.378714 0.323495 0.5
1017 3 0.397669 0.32869 0.5
249 1 0.426387 0.322976 0.5
1018 4 0.407197 0.344348 0.5
727 1 0.435244 0.356272 0.5
372 1 0.468046 0.347096 0.5
347 1 0.502151 0.34304 0.5
262 2 0.534412 0.346309 0.5
285 1 0.567686 0.343362 0.5
979 3 0.619333 0.327734 0.5
173 2 0.600136 0.343581 0.5
433 1 0.626634 0.357796 0.5
923 3 0.665609 0.321509 0.5
476 1 0.655292 0.351444 0.5
448 1 0.718706 0.322197 0.5
232 2 0.680364 0.336549 0.5
80 1 0.706459 0.354 0.5
356 1 0.742618 0.340429 0.5
445 1 0.780634 0.3328 0.5
61 1 0.768409 0.35863 0.5
211 1 0.805007 0.350746 0.5
207 1 0.832234 0.337413 0.5
1002 4 0.858223 0.343293 0.5
1001 3 0.875414 0.347767 0.5
809 1 0.89093 0.321799 0.5
366 1 0.904763 0.356309 0.5
780 1 0.921828 0.326288 0.5
659 1 0.950518 0.326824 0.5
1012 4 0.93616 0.354613 0.5
1011 3 0.954763 0.355314 0.5
1014 4 0.987567 0.344403 0.5
692 1 0.0186662 0.38687 0.5
598 1 0.0445969 0.369506 0.5
538 1 0.0746276 0.383864 0.5
474 1 0.108174 0.376751 0.5
423 1 0.134246 0.391012 0.5
458 1 0.186899 0.361492 0.5
305 1 0.161422 0.378399 0.5
571 1 0.182993 0.39668 0.5
528 1 0.216878 0.366749 0.5
279 1 0.235067 0.393112 0.5
968 4 0.248327 0.362577 0.5
486 1 0.268775 0.385321 0.5
952 4 0.307758 0.365438 0.5
951 3 0.303851 0.38692 0.5
369 1 0.337528 0.372357 0.5
939 3 0.358716 0.391811 0.5
940 4 0.369727 0.374136 0.5
297 1 0.400353 0.372433 0.5
429 1 0.43205 0.385854 0.5
260 1 0.460453 0.376662 0.5
812 1 0.490207 0.370789 0.5
492 1 0.499327 0.399055 0.5
1027 3 0.531838 0.365433 0.5
1028 4 0.520138 0.376848 0.5
1139 3 0.550924 0.393914 0.5
1140 4 0.560185 0.374333 0.5
920 4 0.588647 0.373436 0.5
919 3 0.604103 0.377365 0.5
332 2 0.620132 0.392225 0.5
497 1 0.652106 0.383919 0.5
465 1 0.679323 0.397155 0.5
152 1 0.680939 0.367135 0.5
407 1 0.70682 0.385056 0.5
263 1 0.740126 0.374078 0.5
124 1 0.794028 0.381283 0.5
569 1 0.765025 0.397871 0.5
954 4 0.822116 0.379119 0.5
953 3 0.832498 0.367066 0.5
416 2 0.848728 0.381522 0.5
443 2 0.875346 0.368377 0.5
716 1 0.871858 0.398489 0.5
875 1 0.898525 0.386672 0.5
327 1 0.926363 0.384099 0.5
535 1 0.959638 0.397723 0.5
1013 3 0.999195 0.364023 0.5
483 2 0.965299 0.367945 0.5
499 1 0.988822 0.392304 0.5
711 1 0.00867524 0.415766 0.5
364 1 0.045132 0.403202 0.5
447 2 0.0417869 0.431197 0.5
221 1 0.0712314 0.418218 0.5
365 1 0.0984118 0.406767 0.5
481 1 0.102606 0.437271 0.5
548 1 0.129589 0.424625 0.5
566 1 0.156356 0.411091 0.5
623 1 0.182175 0.427586 0.5
307 1 0.210409 0.410547 0.5
389 1 0.23852 0.429388 0.5
340 1 0.265313 0.414548 0.5
480 2 0.292719 0.404502 0.5
464 2 0.319649 0.435912 0.5
916 4 0.291152 0.435607 0.5
1194 4 0.329681 0.40312 0.5
1193 3 0.322616 0.419175 0.5
640 1 0.352561 0.429089 0.5
339 2 0.376444 0.40336 0.5
197 1 0.3829 0.432641 0.5
1040 4 0.407284 0.411407 0.5
1039 3 0.4249 0.414846 0.5
274 1 0.469628 0.404623 0.5
399 2 0.440981 0.418225 0.5
76 1 0.463152 0.439294 0.5
639 2 0.492613 0.427288 0.5
311 2 0.534675 0.406169 0.5
137 1 0.520905 0.433232 0.5
406 1 0.559325 0.424701 0.5
101 1 0.582432 0.404009 0.5
123 1 0.638093 0.419134 0.5
517 1 0.601984 0.422629 0.5
1164 4 0.667564 0.424576 0.5
140 1 0.708337 0.416617 0.5
1163 3 0.682528 0.432667 0.5
619 1 0.736388 0.40525 0.5
691 1 0.758773 0.434717 0.5
602 1 0.785141 0.420313 0.5
315 1 0.810431 0.405448 0.5
507 1 0.839772 0.411367 0.5
326 1 0.814351 0.438426 0.5
215 1 0.868366 0.427258 0.5
484 1 0.896232 0.419839 0.5
272 1 0.932601 0.412737 0.5
1061 3 0.957476 0.430643 0.5
378 2 0.976358 0.421606 0.5
653 1 0.0248428 0.458266 0.5
662 1 0.00247514 0.478508 0.5
987 3 0.0538422 0.448485 0.5
988 4 0.0737587 0.449113 0.5
589 1 0.058529 0.47587 0.5
337 1 0.0936396 0.471455 0.5
303 1 0.152868 0.444536 0.5
466 1 0.122341 0.460879 0.5
715 1 0.15094 0.474383 0.5
631 2 0.182871 0.457754 0.5
1195 3 0.182094 0.475814 0.5
188 1 0.210768 0.443239 0.5
436 1 0.213097 0.471853 0.5
299 1 0.238711 0.460701 0.5
515 1 0.263591 0.44778 0.5
915 3 0.291332 0.454599 0.5
363 2 0.295323 0.478353 0.5
660 1 0.355709 0.461341 0.5
459 1 0.32688 0.464582 0.5
457 1 0.390699 0.461252 0.5
256 1 0.414647 0.441987 0.5
942 4 0.434914 0.459863 0.5
941 3 0.450386 0.465724 0.5
487 2 0.465078 0.474455 0.5
977 3 0.492742 0.445471 0.5
978 4 0.500848 0.460661 0.5
612 1 0.543284 0.452608 0.5
1030 4 0.526789 0.476259 0.5
93 1 0.578275 0.446294 0.5
415 1 0.57275 0.476352 0.5
493 2 0.611386 0.450856 0.5
1015 3 0.605144 0.469528 0.5
323 1 0.642413 0.449759 0.5
496 1 0.671821 0.460999 0.5
467 2 0.649417 0.479459 0.5
205 2 0.69819 0.447621 0.5
147 1 0.728947 0.440589 0.5
736 2 0.730847 0.470893 0.5
1063 3 0.748463 0.477397 0.5
266 1 0.783283 0.449025 0.5
1064 4 0.761245 0.46497 0.5
168 2 0.795283 0.479377 0.5
1131 3 0.810325 0.473019 0.5
1132 4 0.829061 0.469149 0.5
271 1 0.844104 0.44304 0.5
355 1 0.861711 0.471164 0.5
246 1 0.917602 0.445422 0.5
304 1 0.888844 0.452165 0.5
542 1 0.907405 0.475508 0.5
1062 4 0.946716 0.446495 0.5
832 1 0.99789 0.445284 0.5
749 1 0.973388 0.466506 0.5
264 1 0.0308457 0.488833 0.5
360 1 0.0272179 0.519048 0.5
689 1 0.0557644 0.508801 0.5
718 1 0.084941 0.497719 0.5
358 1 0.117126 0.491456 0.5
511 1 0.138258 0.514237 0.5
432 1 0.163699 0.501998 0.5
1196 4 0.193537 0.493832 0.5
599 1 0.232838 0.493128 0.5
454 1 0.262272 0.481266 0.5
516 1 0.255569 0.514377 0.5
395 1 0.28569 0.506543 0.5
400 1 0.317438 0.496429 0.5
696 1 0.346654 0.489456 0.5
368 1 0.337776 0.518491 0.5
350 1 0.377291 0.492742 0.5
618 1 0.368714 0.519509 0.5
402 1 0.41132 0.482681 0.5
550 1 0.439263 0.495128 0.5
134 1 0.404723 0.512363 0.5
1186 4 0.473579 0.513881 0.5
346 1 0.492977 0.489209 0.5
438 1 0.517807 0.505011 0.5
1029 3 0.542394 0.48773 0.5
431 2 0.550106 0.509334 0.5
821 1 0.578312 0.509037 0.5
1016 4 0.621826 0.481942 0.5
642 1 0.608397 0.512739 0.5
344 1 0.639202 0.511638 0.5
927 3 0.661842 0.492193 0.5
928 4 0.670213 0.50946 0.5
1184 4 0.69613 0.488688 0.5
1183 3 0.707514 0.504827 0.5
470 2 0.727869 0.500835 0.5
376 2 0.754563 0.5199 0.5
354 1 0.771188 0.495755 0.5
446 1 0.798837 0.508164 0.5
150 1 0.828847 0.498862 0.5
300 1 0.859999 0.502721 0.5
473 1 0.890783 0.505066 0.5
657 1 0.947392 0.480303 0.5
417 1 0.921399 0.501826 0.5
478 1 0.948814 0.508279 0.5
477 1 0.97815 0.497585 0.5
1114 4 0.0192454 0.547785 0.5
1113 3 0.00744347 0.557361 0.5
508 1 0.050026 0.540701 0.5
582 1 0.0800075 0.536757 0.5
818 1 0.108039 0.522497 0.5
518 1 0.102196 0.554776 0.5
367 1 0.159335 0.533401 0.5
401 1 0.129864 0.544096 0.5
712 1 0.191436 0.523357 0.5
799 1 0.182982 0.552229 0.5
410 1 0.221576 0.520681 0.5
392 1 0.213733 0.550256 0.5
601 1 0.244537 0.543585 0.5
281 1 0.308454 0.526083 0.5
318 1 0.280254 0.537242 0.5
453 1 0.300804 0.556756 0.5
575 1 0.330236 0.553699 0.5
218 1 0.360914 0.549641 0.5
637 1 0.38981 0.549816 0.5
855 2 0.418946 0.538867 0.5
1149 3 0.432274 0.526051 0.5
1150 4 0.451803 0.534759 0.5
1185 3 0.485218 0.529636 0.5
646 2 0.504559 0.533431 0.5
944 4 0.533562 0.535224 0.5
943 3 0.540556 0.552688 0.5
684 1 0.566715 0.536051 0.5
738 1 0.594811 0.540394 0.5
765 1 0.626981 0.538496 0.5
825 1 0.65776 0.537843 0.5
42 2 0.719718 0.532578 0.5
502 1 0.690822 0.53257 0.5
969 3 0.734982 0.543877 0.5
1103 3 0.764741 0.534956 0.5
1104 4 0.783576 0.529795 0.5
273 1 0.813194 0.531711 0.5
56 1 0.831019 0.557169 0.5
615 1 0.874138 0.528601 0.5
391 1 0.84318 0.529487 0.5
278 1 0.86175 0.554917 0.5
777 1 0.90855 0.529307 0.5
442 1 0.890405 0.554824 0.5
325 1 0.936305 0.53542 0.5
440 1 0.996863 0.525912 0.5
501 1 0.967502 0.53551 0.5
329 1 0.03539 0.579372 0.5
419 2 0.00425225 0.576615 0.5
693 1 0.0658239 0.565623 0.5
658 1 0.0601101 0.595809 0.5
680 1 0.091415 0.58281 0.5
540 1 0.121866 0.580433 0.5
720 1 0.157793 0.57277 0.5
512 1 0.191164 0.579431 0.5
426 1 0.215838 0.597651 0.5
784 1 0.232169 0.572867 0.5
572 1 0.272464 0.565501 0.5
1147 3 0.262394 0.593375 0.5
293 1 0.290905 0.589819 0.5
568 1 0.32014 0.582226 0.5
638 1 0.350197 0.576629 0.5
611 1 0.381601 0.576658 0.5
739 1 0.416425 0.568282 0.5
286 1 0.408616 0.59813 0.5
641 1 0.43807 0.592667 0.5
685 1 0.448666 0.562925 0.5
556 1 0.476146 0.560631 0.5
609 1 0.468128 0.59032 0.5
1170 4 0.510216 0.566664 0.5
1169 3 0.497877 0.58354 0.5
708 2 0.504094 0.599565 0.5
524 2 0.544788 0.573056 0.5
597 1 0.582095 0.571564 0.5
586 1 0.563748 0.59844 0.5
534 1 0.609495 0.5681 0.5
681 1 0.627285 0.591942 0.5
479 1 0.641273 0.56217 0.5
766 1 0.674485 0.564123 0.5
758 1 0.656988 0.5911 0.5
261 1 0.706516 0.563396 0.5
6 1 0.688952 0.59543 0.5
970 4 0.739877 0.560942 0.5
1085 3 0.742301 0.595982 0.5
413 2 0.720049 0.590169 0.5
1086 4 0.758565 0.596173 0.5
444 1 0.769928 0.565244 0.5
645 1 0.799547 0.560197 0.5
651 1 0.788683 0.588675 0.5
179 1 0.817804 0.584894 0.5
814 1 0.849494 0.585328 0.5
154 1 0.884013 0.585189 0.5
690 1 0.918418 0.570708 0.5
620 1 0.94788 0.563407 0.5
592 1 0.943665 0.595211 0.5
411 1 0.977124 0.563307 0.5
1156 4 0.983843 0.595294 0.5
25 2 0.0124797 0.601795 0.5
775 1 0.0115006 0.635346 0.5
810 1 0.0450826 0.620623 0.5
1069 3 0.0754749 0.62193 0.5
1070 4 0.0902142 0.612393 0.5
584 1 0.111136 0.631358 0.5
468 1 0.13188 0.609737 0.5
1181 3 0.14249 0.639722 0.5
1182 4 0.159306 0.635764 0.5
577 1 0.163572 0.601076 0.5
748 1 0.189966 0.616338 0.5
1180 4 0.221283 0.6254 0.5
670 2 0.247468 0.60426 0.5
1148 4 0.274657 0.613288 0.5
418 2 0.250136 0.635293 0.5
622 1 0.314709 0.611521 0.5
128 1 0.295374 0.639146 0.5
1174 4 0.346368 0.606348 0.5
251 1 0.33058 0.638316 0.5
1173 3 0.368273 0.604379 0.5
450 2 0.386264 0.61438 0.5
377 1 0.424174 0.620569 0.5
552 1 0.453238 0.619985 0.5
555 1 0.481223 0.626719 0.5
248 1 0.510338 0.635333 0.5
614 1 0.534527 0.601384 0.5
890 1 0.549662 0.627317 0.5
861 1 0.594096 0.600303 0.5
489 1 0.581502 0.62527 0.5
729 1 0.611376 0.621814 0.5
621 1 0.641232 0.616534 0.5
73 1 0.671658 0.621178 0.5
383 1 0.705715 0.61804 0.5
268 1 0.737025 0.622684 0.5
375 1 0.772092 0.623371 0.5
324 1 0.802398 0.620747 0.5
217 1 0.835462 0.612634 0.5
536 2 0.86793 0.612916 0.5
710 1 0.85147 0.638443 0.5
907 3 0.878823 0.625963 0.5
387 1 0.909523 0.600411 0.5
908 4 0.899848 0.627583 0.5
379 2 0.92992 0.622416 0.5
917 3 0.933565 0.639717 0.5
1155 3 0.99441 0.610126 0.5
506 1 0.963325 0.616011 0.5
397 1 0.982512 0.638575 0.5
750 1 0.0375553 0.650526 0.5
475 2 0.0102005 0.665254 0.5
868 2 0.0655556 0.641293 0.5
877 1 0.0651816 0.67028 0.5
632 1 0.0942268 0.652488 0.5
851 1 0.112557 0.678212 0.5
626 2 0.130201 0.653614 0.5
544 1 0.156647 0.666526 0.5
606 2 0.187324 0.647687 0.5
1179 3 0.211387 0.64385 0.5
682 1 0.202856 0.673505 0.5
1098 4 0.23361 0.661034 0.5
1019 3 0.266187 0.644781 0.5
1020 4 0.275214 0.659508 0.5
1097 3 0.244913 0.676342 0.5
48 1 0.312014 0.663563 0.5
495 1 0.34132 0.665452 0.5
647 2 0.36141 0.642035 0.5
1095 3 0.382583 0.643461 0.5
732 2 0.372218 0.672173 0.5
1096 4 0.402023 0.642709 0.5
820 1 0.428544 0.650034 0.5
558 1 0.414517 0.675556 0.5
892 1 0.459668 0.650704 0.5
830 1 0.444007 0.676507 0.5
78 1 0.492099 0.658794 0.5
532 1 0.514992 0.679153 0.5
583 1 0.533487 0.654042 0.5
527 1 0.566764 0.651341 0.5
549 1 0.598466 0.652081 0.5
351 1 0.578479 0.677762 0.5
686 1 0.629087 0.647745 0.5
734 1 0.61044 0.679461 0.5
676 1 0.661248 0.650998 0.5
288 1 0.644612 0.676475 0.5
683 1 0.676461 0.674537 0.5
613 1 0.6922 0.645452 0.5
386 1 0.705628 0.674613 0.5
185 1 0.7226 0.649229 0.5
616 1 0.757957 0.647649 0.5
794 1 0.740392 0.675927 0.5
224 1 0.788994 0.650335 0.5
289 1 0.76994 0.676032 0.5
505 1 0.82303 0.6555 0.5
643 2 0.804133 0.675728 0.5
503 1 0.853296 0.667712 0.5
163 1 0.877946 0.653946 0.5
677 1 0.907391 0.655801 0.5
918 4 0.952671 0.645755 0.5
746 1 0.937985 0.669741 0.5
1067 3 0.992218 0.667729 0.5
1068 4 0.9705 0.6702 0.5
807 1 0.036853 0.681733 0.5
972 4 0.00578523 0.697574 0.5
834 2 0.0313779 0.711823 0.5
801 1 0.0612469 0.703172 0.5
701 1 0.0869435 0.691279 0.5
783 2 0.112339 0.709009 0.5
243 1 0.141665 0.690427 0.5
547 1 0.175309 0.688555 0.5
666 1 0.164999 0.714805 0.5
1166 4 0.202353 0.702754 0.5
1165 3 0.22293 0.701215 0.5
553 2 0.261067 0.685753 0.5
427 2 0.24006 0.714224 0.5
425 1 0.274786 0.716573 0.5
706 1 0.290693 0.690439 0.5
698 1 0.304883 0.715221 0.5
43 1 0.352726 0.695222 0.5
652 1 0.323317 0.69169 0.5
1092 4 0.397712 0.703491 0.5
1091 3 0.384469 0.687956 0.5
405 1 0.366942 0.719776 0.5
220 1 0.433745 0.708976 0.5
1100 4 0.473234 0.6822 0.5
1099 3 0.464676 0.699777 0.5
587 2 0.46461 0.718359 0.5
707 1 0.497513 0.705872 0.5
705 1 0.546874 0.6808 0.5
530 1 0.529056 0.704903 0.5
82 2 0.558199 0.709039 0.5
1048 4 0.595604 0.705867 0.5
1047 3 0.575944 0.706692 0.5
500 1 0.631296 0.702329 0.5
608 1 0.661222 0.700329 0.5
731 1 0.691851 0.706149 0.5
835 1 0.722623 0.699779 0.5
703 2 0.754779 0.706759 0.5
562 1 0.78955 0.699511 0.5
1037 3 0.824294 0.686196 0.5
1038 4 0.820006 0.707172 0.5
564 1 0.879581 0.683675 0.5
409 1 0.851309 0.696554 0.5
648 1 0.866621 0.717676 0.5
581 1 0.897576 0.714409 0.5
27 1 0.909867 0.685643 0.5
724 1 0.942975 0.701 0.5
971 3 0.991546 0.708878 0.5
520 2 0.973101 0.701788 0.5
1073 3 0.0245016 0.730629 0.5
1074 4 0.0281089 0.74826 0.5
655 1 0.0550406 0.736407 0.5
541 1 0.0761805 0.756221 0.5
840 1 0.0866725 0.727516 0.5
922 4 0.108128 0.746569 0.5
1197 3 0.130907 0.723482 0.5
1198 4 0.143866 0.734605 0.5
394 1 0.190908 0.730774 0.5
886 1 0.168128 0.755403 0.5
523 1 0.22121 0.747906 0.5
697 1 0.255911 0.7551 0.5
1052 4 0.283729 0.746841 0.5
644 1 0.318739 0.752547 0.5
114 1 0.333238 0.722306 0.5
669 1 0.351548 0.744631 0.5
678 1 0.380847 0.750288 0.5
591 1 0.405286 0.731286 0.5
277 1 0.438624 0.738802 0.5
880 2 0.414477 0.758065 0.5
1162 4 0.47887 0.744274 0.5
49 1 0.511199 0.737838 0.5
522 1 0.541033 0.735385 0.5
823 1 0.528462 0.758507 0.5
236 1 0.582434 0.735168 0.5
802 1 0.56296 0.756987 0.5
741 1 0.610808 0.728818 0.5
357 1 0.622223 0.757546 0.5
737 1 0.647183 0.726449 0.5
630 1 0.676936 0.734404 0.5
533 1 0.651023 0.755885 0.5
525 1 0.708774 0.731138 0.5
744 1 0.736968 0.734222 0.5
774 2 0.755474 0.755798 0.5
1031 3 0.770225 0.721014 0.5
1032 4 0.779333 0.736827 0.5
403 1 0.809389 0.734971 0.5
1024 4 0.837838 0.73065 0.5
463 1 0.828364 0.75994 0.5
1023 3 0.852909 0.749594 0.5
441 1 0.882144 0.741857 0.5
735 1 0.912866 0.752403 0.5
596 1 0.934133 0.730403 0.5
408 1 0.942082 0.757829 0.5
656 1 0.963952 0.730214 0.5
845 1 0.995976 0.738864 0.5
864 1 0.973962 0.758496 0.5
687 1 0.00346787 0.767268 0.5
32 1 0.024841 0.791656 0.5
755 1 0.0473968 0.76952 0.5
514 1 0.0535289 0.799995 0.5
719 1 0.0822562 0.787251 0.5
343 2 0.110851 0.779126 0.5
921 3 0.107156 0.762968 0.5
668 1 0.139286 0.762029 0.5
819 2 0.134408 0.796468 0.5
1136 4 0.162399 0.784077 0.5
1135 3 0.179168 0.790821 0.5
398 1 0.20058 0.769084 0.5
388 1 0.234111 0.774998 0.5
702 1 0.265028 0.785507 0.5
1051 3 0.289481 0.766982 0.5
521 2 0.29598 0.784394 0.5
914 4 0.325554 0.778996 0.5
913 3 0.347121 0.776149 0.5
826 2 0.366807 0.776726 0.5
672 1 0.393958 0.787477 0.5
935 3 0.426776 0.775843 0.5
936 4 0.421715 0.79332 0.5
796 1 0.454869 0.764849 0.5
498 1 0.459748 0.799906 0.5
1161 3 0.48881 0.761468 0.5
133 2 0.480353 0.780092 0.5
885 1 0.509212 0.785266 0.5
759 1 0.541794 0.787762 0.5
22 1 0.595637 0.762813 0.5
87 1 0.574625 0.784784 0.5
55 1 0.637845 0.784616 0.5
837 1 0.606033 0.790528 0.5
545 1 0.668657 0.78909 0.5
46 1 0.682333 0.761129 0.5
144 1 0.713882 0.76424 0.5
803 1 0.695276 0.78829 0.5
302 1 0.740345 0.779402 0.5
957 3 0.769109 0.766522 0.5
958 4 0.772112 0.786482 0.5
779 1 0.800186 0.762606 0.5
1152 4 0.800944 0.794309 0.5
1151 3 0.820608 0.79122 0.5
531 2 0.861501 0.763043 0.5
1057 3 0.869575 0.792452 0.5
593 2 0.84077 0.786614 0.5
781 1 0.917789 0.780041 0.5
1058 4 0.886622 0.780127 0.5
695 1 0.947936 0.787138 0.5
841 2 0.977552 0.787084 0.5
949 3 0.994948 0.799739 0.5
852 1 0.0292679 0.821173 0.5
663 1 0.071766 0.821298 0.5
635 1 0.103795 0.810578 0.5
1081 3 0.135383 0.818757 0.5
1082 4 0.137636 0.838912 0.5
847 1 0.166522 0.817673 0.5
519 2 0.19253 0.800446 0.5
452 2 0.19435 0.832284 0.5
600 1 0.222359 0.800873 0.5
494 1 0.226583 0.835989 0.5
404 1 0.252057 0.81424 0.5
764 1 0.280993 0.815419 0.5
822 1 0.312017 0.810348 0.5
469 1 0.339988 0.811248 0.5
800 1 0.354056 0.838099 0.5
167 1 0.371924 0.806943 0.5
863 1 0.403222 0.820427 0.5
189 1 0.44184 0.822312 0.5
585 1 0.469411 0.831756 0.5
673 1 0.491918 0.811395 0.5
112 1 0.503441 0.839034 0.5
113 1 0.521273 0.81705 0.5
700 1 0.551449 0.816433 0.5
829 1 0.587046 0.814457 0.5
870 1 0.62301 0.817127 0.5
89 1 0.652405 0.819872 0.5
999 3 0.703741 0.81584 0.5
1000 4 0.684012 0.815777 0.5
900 2 0.721256 0.806064 0.5
23 1 0.74984 0.809331 0.5
560 2 0.728135 0.838457 0.5
898 1 0.778338 0.816921 0.5
563 1 0.810678 0.824003 0.5
565 2 0.869023 0.811869 0.5
627 1 0.842331 0.823879 0.5
811 1 0.888985 0.835086 0.5
148 1 0.909252 0.808441 0.5
362 1 0.934828 0.813268 0.5
950 4 0.999217 0.817395 0.5
754 1 0.966114 0.812644 0.5
605 1 0.97904 0.839296 0.5
760 1 0.0218082 0.850314 0.5
761 1 0.0522316 0.843856 0.5
21 1 0.0521499 0.872671 0.5
504 1 0.107245 0.847113 0.5
573 1 0.0800039 0.860552 0.5
371 2 0.129697 0.878864 0.5
1111 3 0.147156 0.875759 0.5
14 1 0.167151 0.84645 0.5
1072 4 0.199189 0.872585 0.5
1071 3 0.198004 0.852388 0.5
1112 4 0.165442 0.876155 0.5
709 1 0.235246 0.865446 0.5
579 1 0.25643 0.840972 0.5
793 1 0.272482 0.874021 0.5
75 1 0.289151 0.845779 0.5
828 1 0.301645 0.873712 0.5
462 1 0.321441 0.841586 0.5
634 1 0.335137 0.867614 0.5
228 1 0.384225 0.843418 0.5
726 2 0.397966 0.87755 0.5
319 1 0.368931 0.868642 0.5
674 1 0.417508 0.853578 0.5
106 1 0.446108 0.852631 0.5
118 1 0.479524 0.857686 0.5
578 1 0.457678 0.879853 0.5
12 2 0.512917 0.868401 0.5
728 1 0.533438 0.845233 0.5
770 2 0.556022 0.873865 0.5
910 4 0.570927 0.841463 0.5
909 3 0.565006 0.861271 0.5
322 1 0.636483 0.846429 0.5
146 1 0.604081 0.842437 0.5
1188 4 0.615657 0.868198 0.5
471 1 0.668132 0.84428 0.5
867 2 0.650202 0.869713 0.5
902 4 0.695106 0.852064 0.5
901 3 0.712495 0.850546 0.5
58 1 0.706142 0.879024 0.5
782 1 0.736624 0.866577 0.5
71 1 0.761393 0.845901 0.5
59 1 0.788796 0.847145 0.5
831 2 0.775398 0.878076 0.5
1065 3 0.794981 0.876161 0.5
83 1 0.824686 0.848798 0.5
434 1 0.863749 0.851436 0.5
747 1 0.843722 0.879321 0.5
574 1 0.917457 0.841175 0.5
69 1 0.894552 0.866347 0.5
932 4 0.947304 0.841758 0.5
931 3 0.949245 0.861868 0.5
679 2 0.928658 0.869915 0.5
717 1 0.982033 0.868361 0.5
1083 3 0.0238113 0.891737 0.5
1084 4 0.00998199 0.882394 0.5
813 2 0.0391851 0.899851 0.5
1089 3 0.00129255 0.914666 0.5