ITEM: TIMESTEP
0
ITEM: NUMBER OF ATOMS
2500
ITEM: BOX BOUNDS pp pp pp
0.0000000000000000e+00 1.0000000000000000e+02
0.0000000000000000e+00 1.0000000000000000e+02
0.0000000000000000e+00 1.0000000000000000e+02
ITEM: ATOMS id type xs ys zs
428 1 0.48 0.46 0.36
1673 1 0.48 0.46 0.36
478 1 0.49 0.46 0.36
528 1 0.49 0.46 0.36
1723 1 0.49 0.46 0.36
1773 1 0.49 0.46 0.36
578 1 0.5 0.46 0.36
628 1 0.5 0.46 0.36
678 1 0.5 0.46 0.36
728 1 0.51 0.46 0.36
778 1 0.51 0.46 0.36
1823 1 0.5 0.46 0.36
1873 1 0.5 0.46 0.36
1923 1 0.5 0.46 0.36
1973 1 0.51 0.46 0.36
2023 1 0.51 0.46 0.36
828 1 0.52 0.46 0.36
2073 1 0.52 0.46 0.36
228 1 0.46 0.48 0.36
1423 1 0.46 0.48 0.36
1473 1 0.46 0.48 0.36
278 1 0.47 0.48 0.36
327 1 0.48 0.48 0.35
328 1 0.47 0.47 0.36
378 1 0.47 0.47 0.36
1523 1 0.47 0.47 0.36
1573 1 0.47 0.47 0.36
1623 1 0.48 0.47 0.36
377 1 0.49 0.48 0.35
427 1 0.49 0.48 0.35
477 1 0.49 0.48 0.35
1574 1 0.49 0.48 0.35
1624 1 0.49 0.48 0.35
1674 1 0.49 0.48 0.35
1724 1 0.49 0.48 0.35
527 1 0.5 0.48 0.35
577 1 0.5 0.48 0.35
627 1 0.5 0.48 0.35
677 1 0.5 0.48 0.35
727 1 0.5 0.48 0.35
777 1 0.51 0.48 0.35
827 1 0.51 0.48 0.35
877 1 0.51 0.48 0.35
927 1 0.51 0.48 0.35
1774 1 0.5 0.48 0.35
1824 1 0.5 0.48 0.35
1874 1 0.5 0.48 0.35
1924 1 0.5 0.48 0.35
1974 1 0.5 0.48 0.35
2024 1 0.51 0.48 0.35
2074 1 0.51 0.48 0.35
2124 1 0.51 0.48 0.35
878 1 0.52 0.47 0.36
928 1 0.53 0.47 0.36
978 1 0.53 0.47 0.36
2123 1 0.53 0.47 0.36
2173 1 0.53 0.47 0.36
2174 1 0.52 0.48 0.35
2223 1 0.53 0.48 0.36
1028 1 0.54 0.48 0.36
1078 1 0.54 0.48 0.36
2273 1 0.54 0.48 0.36
128 1 0.46 0.49 0.36
178 1 0.46 0.49 0.36
1373 1 0.46 0.49 0.36
177 1 0.48 0.49 0.35
227 1 0.48 0.49 0.35
277 1 0.48 0.49 0.35
1424 1 0.48 0.49 0.35
1474 1 0.48 0.49 0.35
1524 1 0.48 0.49 0.35
977 1 0.52 0.49 0.35
1027 1 0.52 0.49 0.35
1077 1 0.52 0.49 0.35
2224 1 0.52 0.49 0.35
2274 1 0.52 0.49 0.35
2324 1 0.52 0.49 0.35
1128 1 0.54 0.49 0.36
2323 1 0.54 0.49 0.36
2373 1 0.54 0.49 0.36
28 1 0.46 0.5 0.36
78 1 0.46 0.5 0.36
1123 1 0.46 0.51 0.36
1173 1 0.46 0.5 0.36
1223 1 0.46 0.5 0.36
1273 1 0.46 0.5 0.36
1323 1 0.46 0.5 0.36
2328 1 0.46 0.51 0.36
2378 1 0.46 0.51 0.36
2428 1 0.46 0.5 0.36
2478 1 0.46 0.5 0.36
27 1 0.48 0.5 0.35
77 1 0.48 0.5 0.35
127 1 0.48 0.5 0.35
974 1 0.48 0.51 0.35
1024 1 0.48 0.51 0.35
1074 1 0.48 0.51 0.35
1124 1 0.48 0.5 0.35
1174 1 0.48 0.5 0.35
1224 1 0.48 0.5 0.35
1274 1 0.48 0.5 0.35
1324 1 0.48 0.5 0.35
1374 1 0.48 0.5 0.35
2227 1 0.48 0.51 0.35
2277 1 0.48 0.51 0.35
2327 1 0.48 0.51 0.35
2377 1 0.48 0.5 0.35
2427 1 0.48 0.5 0.35
2477 1 0.48 0.5 0.35
25 1 0.5 0.5 0.35
26 1 0.5 0.5 0.35
75 1 0.5 0.5 0.35
76 1 0.5 0.5 0.35
125 1 0.5 0.5 0.35
126 1 0.5 0.5 0.35
175 1 0.5 0.5 0.35
176 1 0.5 0.5 0.35
225 1 0.5 0.5 0.35
226 1 0.5 0.5 0.35
275 1 0.5 0.5 0.35
276 1 0.5 0.5 0.35
325 1 0.5 0.5 0.35
326 1 0.5 0.5 0.35
375 1 0.5 0.5 0.35
376 1 0.5 0.5 0.35
425 1 0.5 0.5 0.35
426 1 0.5 0.5 0.35
475 1 0.5 0.5 0.35
476 1 0.5 0.5 0.35
525 1 0.5 0.5 0.35
526 1 0.5 0.5 0.35
575 1 0.5 0.5 0.35
576 1 0.5 0.5 0.35
625 1 0.5 0.5 0.35
626 1 0.5 0.5 0.35
675 1 0.5 0.5 0.35
676 1 0.5 0.5 0.35
725 1 0.5 0.5 0.35
726 1 0.5 0.5 0.35
775 1 0.5 0.5 0.35
776 1 0.5 0.5 0.35
825 1 0.5 0.5 0.35
826 1 0.5 0.5 0.35
875 1 0.5 0.5 0.35
876 1 0.5 0.5 0.35
925 1 0.5 0.5 0.35
926 1 0.5 0.5 0.35
975 1 0.5 0.5 0.35
976 1 0.5 0.5 0.35
1025 1 0.5 0.5 0.35
1026 1 0.5 0.5 0.35
1075 1 0.5 0.5 0.35
1076 1 0.5 0.5 0.35
1125 1 0.5 0.5 0.35
1126 1 0.5 0.5 0.35
1175 1 0.5 0.5 0.35
1176 1 0.5 0.5 0.35
1225 1 0.5 0.5 0.35
1226 1 0.5 0.5 0.35
1275 1 0.5 0.5 0.35
1276 1 0.5 0.5 0.35
1325 1 0.5 0.5 0.35
1326 1 0.5 0.5 0.35
1375 1 0.5 0.5 0.35
1376 1 0.5 0.5 0.35
1425 1 0.5 0.5 0.35
1426 1 0.5 0.5 0.35
1475 1 0.5 0.5 0.35
1476 1 0.5 0.5 0.35
1525 1 0.5 0.5 0.35
1526 1 0.5 0.5 0.35
1575 1 0.5 0.5 0.35
1576 1 0.5 0.5 0.35
1625 1 0.5 0.5 0.35
1626 1 0.5 0.5 0.35
1675 1 0.5 0.5 0.35
1676 1 0.5 0.5 0.35
1725 1 0.5 0.5 0.35
1726 1 0.5 0.5 0.35
1775 1 0.5 0.5 0.35
1776 1 0.5 0.5 0.35
1825 1 0.5 0.5 0.35
1826 1 0.5 0.5 0.35
1875 1 0.5 0.5 0.35
1876 1 0.5 0.5 0.35
1925 1 0.5 0.5 0.35
1926 1 0.5 0.5 0.35
1975 1 0.5 0.5 0.35
1976 1 0.5 0.5 0.35
2025 1 0.5 0.5 0.35
2026 1 0.5 0.5 0.35
2075 1 0.5 0.5 0.35
2076 1 0.5 0.5 0.35
2125 1 0.5 0.5 0.35
2126 1 0.5 0.5 0.35
2175 1 0.5 0.5 0.35
2176 1 0.5 0.5 0.35
2225 1 0.5 0.5 0.35
2226 1 0.5 0.5 0.35
2275 1 0.5 0.5 0.35
2276 1 0.5 0.5 0.35
2325 1 0.5 0.5 0.35
2326 1 0.5 0.5 0.35
2375 1 0.5 0.5 0.35
2376 1 0.5 0.5 0.35
2425 1 0.5 0.5 0.35
2426 1 0.5 0.5 0.35
2475 1 0.5 0.5 0.35
2476 1 0.5 0.5 0.35
24 1 0.52 0.5 0.35
74 1 0.52 0.5 0.35
124 1 0.52 0.5 0.35
174 1 0.52 0.51 0.35
224 1 0.52 0.51 0.35
274 1 0.52 0.51 0.35
1127 1 0.52 0.5 0.35
1177 1 0.52 0.5 0.35
1227 1 0.52 0.5 0.35
1277 1 0.52 0.5 0.35
1327 1 0.52 0.5 0.35
1377 1 0.52 0.5 0.35
1427 1 0.52 0.51 0.35
1477 1 0.52 0.51 0.35
1527 1 0.52 0.51 0.35
2374 1 0.52 0.5 0.35
2424 1 0.52 0.5 0.35
2474 1 0.52 0.5 0.35
23 1 0.54 0.5 0.36
73 1 0.54 0.5 0.36
123 1 0.54 0.51 0.36
173 1 0.54 0.51 0.36
1178 1 0.54 0.5 0.36
1228 1 0.54 0.5 0.36
1278 1 0.54 0.5 0.36
1328 1 0.54 0.5 0.36
1378 1 0.54 0.51 0.36
2423 1 0.54 0.5 0.36
2473 1 0.54 0.5 0.36
1023 1 0.46 0.52 0.36
1073 1 0.46 0.52 0.36
2278 1 0.46 0.52 0.36
873 1 0.48 0.53 0.36
923 1 0.47 0.53 0.36
973 1 0.47 0.53 0.36
2128 1 0.47 0.53 0.36
2177 1 0.48 0.52 0.35
2178 1 0.47 0.53 0.36
2228 1 0.47 0.52 0.36
774 1 0.49 0.52 0.35
824 1 0.49 0.52 0.35
874 1 0.49 0.52 0.35
924 1 0.49 0.52 0.35
2027 1 0.49 0.52 0.35
2077 1 0.49 0.52 0.35
2127 1 0.49 0.52 0.35
374 1 0.51 0.52 0.35
424 1 0.51 0.52 0.35
474 1 0.51 0.52 0.35
524 1 0.5 0.52 0.35
574 1 0.5 0.52 0.35
624 1 0.5 0.52 0.35
674 1 0.5 0.52 0.35
724 1 0.5 0.52 0.35
1577 1 0.51 0.52 0.35
1627 1 0.51 0.52 0.35
1677 1 0.51 0.52 0.35
1727 1 0.51 0.52 0.35
1777 1 0.5 0.52 0.35
1827 1 0.5 0.52 0.35
1877 1 0.5 0.52 0.35
1927 1 0.5 0.52 0.35
1977 1 0.5 0.52 0.35
273 1 0.53 0.52 0.36
323 1 0.53 0.53 0.36
324 1 0.52 0.52 0.35
373 1 0.53 0.53 0.36
1528 1 0.53 0.53 0.36
1578 1 0.53 0.53 0.36
1628 1 0.52 0.53 0.36
223 1 0.54 0.52 0.36
1428 1 0.54 0.52 0.36
1478 1 0.54 0.52 0.36
823 1 0.48 0.54 0.36
2078 1 0.48 0.54 0.36
723 1 0.49 0.54 0.36
773 1 0.49 0.54 0.36
1978 1 0.49 0.54 0.36
2028 1 0.49 0.54 0.36
473 1 0.51 0.54 0.36
523 1 0.51 0.54 0.36
573 1 0.5 0.54 0.36
623 1 0.5 0.54 0.36
673 1 0.5 0.54 0.36
1728 1 0.51 0.54 0.36
1778 1 0.51 0.54 0.36
1828 1 0.5 0.54 0.36
1878 1 0.5 0.54 0.36
1928 1 0.5 0.54 0.36
423 1 0.52 0.54 0.36
1678 1 0.52 0.54 0.36
530 1 0.48 0.42 0.38
580 1 0.49 0.42 0.38
1771 1 0.49 0.42 0.38
630 1 0.5 0.42 0.38
680 1 0.5 0.42 0.38
730 1 0.51 0.42 0.38
1821 1 0.5 0.42 0.38
1871 1 0.5 0.42 0.38
1921 1 0.51 0.42 0.38
1971 1 0.52 0.42 0.38
380 1 0.45 0.44 0.38
430 1 0.46 0.43 0.38
1571 1 0.45 0.44 0.38
1621 1 0.46 0.44 0.38
479 1 0.48 0.44 0.37
480 1 0.47 0.43 0.38
1671 1 0.47 0.43 0.38
1721 1 0.48 0.43 0.38
1722 1 0.48 0.44 0.37
529 1 0.49 0.44 0.37
579 1 0.49 0.44 0.37
1772 1 0.49 0.44 0.37
629 1 0.5 0.44 0.37
679 1 0.5 0.44 0.37
729 1 0.51 0.44 0.37
1822 1 0.5 0.44 0.37
1872 1 0.5 0.44 0.37
1922 1 0.51 0.44 0.37
1972 1 0.51 0.44 0.37
779 1 0.52 0.44 0.37
780 1 0.52 0.43 0.38
830 1 0.53 0.43 0.38
2021 1 0.53 0.43 0.38
2022 1 0.52 0.44 0.37
880 1 0.54 0.44 0.38
930 1 0.55 0.44 0.38
2071 1 0.54 0.43 0.38
2121 1 0.55 0.44 0.38
230 1 0.43 0.46 0.38
280 1 0.44 0.46 0.38
1471 1 0.44 0.46 0.38
1521 1 0.44 0.45 0.38
329 1 0.46 0.46 0.37
330 1 0.45 0.45 0.38
379 1 0.46 0.45 0.37
1522 1 0.45 0.46 0.37
1572 1 0.46 0.46 0.37
429 1 0.47 0.45 0.37
1622 1 0.47 0.45 0.37
1672 1 0.47 0.45 0.37
829 1 0.53 0.45 0.37
879 1 0.53 0.45 0.37
2072 1 0.53 0.45 0.37
929 1 0.54 0.46 0.37
979 1 0.55 0.46 0.37
2122 1 0.54 0.45 0.37
2171 1 0.55 0.45 0.38
2172 1 0.54 0.46 0.37
980 1 0.56 0.45 0.38
1030 1 0.56 0.46 0.38
2221 1 0.56 0.46 0.38
2271 1 0.57 0.46 0.38
130 1 0.42 0.48 0.38
179 1 0.44 0.48 0.37
180 1 0.43 0.47 0.38
1371 1 0.43 0.48 0.38
1372 1 0.44 0.48 0.37
1421 1 0.43 0.47 0.38
229 1 0.45 0.47 0.37
279 1 0.45 0.47 0.37
1422 1 0.45 0.48 0.37
1472 1 0.45 0.47 0.37
1029 1 0.55 0.47 0.37
1079 1 0.55 0.48 0.37
2222 1 0.55 0.47 0.37
2272 1 0.55 0.47 0.37
1080 1 0.57 0.47 0.38
1129 1 0.56 0.48 0.37
1130 1 0.57 0.48 0.38
2321 1 0.57 0.47 0.38
2322 1 0.56 0.48 0.37
2371 1 0.58 0.48 0.38
80 1 0.42 0.49 0.38
1321 1 0.42 0.49 0.38
129 1 0.44 0.49 0.37
1322 1 0.44 0.49 0.37
1179 1 0.56 0.49 0.37
2372 1 0.56 0.49 0.37
1180 1 0.58 0.49 0.38
2421 1 0.58 0.49 0.38
30 1 0.42 0.5 0.38
1171 1 0.42 0.51 0.38
1221 1 0.42 0.5 0.38
1271 1 0.42 0.5 0.38
2430 1 0.42 0.51 0.38
2480 1 0.42 0.5 0.38
29 1 0.44 0.5 0.37
79 1 0.44 0.5 0.37
1172 1 0.44 0.51 0.37
1222 1 0.44 0.5 0.37
1272 1 0.44 0.5 0.37
2379 1 0.44 0.51 0.37
2429 1 0.44 0.5 0.37
2479 1 0.44 0.5 0.37
22 1 0.56 0.5 0.37
72 1 0.56 0.5 0.37
122 1 0.56 0.51 0.37
1229 1 0.56 0.5 0.37
1279 1 0.56 0.5 0.37
1329 1 0.56 0.51 0.37
2422 1 0.56 0.5 0.37
2472 1 0.56 0.5 0.37
21 1 0.58 0.5 0.38
71 1 0.58 0.51 0.38
1230 1 0.58 0.5 0.38
1280 1 0.58 0.5 0.38
1330 1 0.58 0.51 0.38
2471 1 0.58 0.5 0.38
2380 1 0.42 0.52 0.38
1071 1 0.43 0.53 0.38
1121 1 0.43 0.52 0.38
1122 1 0.44 0.52 0.37
2329 1 0.44 0.52 0.37
2330 1 0.43 0.53 0.38
1022 1 0.45 0.53 0.37
1072 1 0.45 0.52 0.37
2229 1 0.45 0.53 0.37
2279 1 0.45 0.53 0.37
222 1 0.55 0.53 0.37
272 1 0.55 0.53 0.37
1429 1 0.55 0.52 0.37
1479 1 0.55 0.53 0.37
171 1 0.57 0.53 0.38
172 1 0.56 0.52 0.37
1379 1 0.56 0.52 0.37
1380 1 0.57 0.52 0.38
1430 1 0.57 0.53 0.38
121 1 0.58 0.52 0.38
971 1 0.44 0.55 0.38
1021 1 0.44 0.54 0.38
2230 1 0.44 0.54 0.38
2280 1 0.43 0.54 0.38
922 1 0.46 0.54 0.37
972 1 0.45 0.54 0.37
2129 1 0.46 0.55 0.37
2179 1 0.46 0.54 0.37
2180 1 0.45 0.55 0.38
822 1 0.47 0.55 0.37
872 1 0.47 0.55 0.37
2079 1 0.47 0.55 0.37
422 1 0.53 0.55 0.37
1629 1 0.53 0.55 0.37
1679 1 0.53 0.55 0.37
321 1 0.55 0.55 0.38
322 1 0.54 0.54 0.37
372 1 0.54 0.55 0.37
1529 1 0.55 0.54 0.37
1579 1 0.54 0.54 0.37
221 1 0.57 0.54 0.38
271 1 0.56 0.54 0.38
1480 1 0.56 0.54 0.38
1530 1 0.56 0.55 0.38
871 1 0.46 0.56 0.38
921 1 0.45 0.56 0.38
2080 1 0.46 0.57 0.38
2130 1 0.45 0.56 0.38
771 1 0.48 0.57 0.38
772 1 0.48 0.56 0.37
821 1 0.47 0.57 0.38
2029 1 0.48 0.56 0.37
2030 1 0.47 0.57 0.38
722 1 0.49 0.56 0.37
1929 1 0.49 0.56 0.37
1979 1 0.49 0.56 0.37
522 1 0.51 0.56 0.37
572 1 0.51 0.56 0.37
622 1 0.5 0.56 0.37
672 1 0.5 0.56 0.37
1779 1 0.51 0.56 0.37
1829 1 0.5 0.56 0.37
1879 1 0.5 0.56 0.37
471 1 0.53 0.57 0.38
472 1 0.52 0.56 0.37
1680 1 0.53 0.57 0.38
1729 1 0.52 0.56 0.37
1730 1 0.52 0.57 0.38
371 1 0.55 0.56 0.38
421 1 0.54 0.57 0.38
1580 1 0.55 0.56 0.38
1630 1 0.54 0.56 0.38
1980 1 0.48 0.58 0.38
721 1 0.49 0.58 0.38
1930 1 0.49 0.58 0.38
571 1 0.51 0.58 0.38
621 1 0.5 0.58 0.38
671 1 0.5 0.58 0.38
1780 1 0.51 0.58 0.38
1830 1 0.5 0.58 0.38
1880 1 0.5 0.58 0.38
521 1 0.52 0.58 0.38
482 1 0.46 0.4 0.4
1669 1 0.45 0.4 0.4
532 1 0.47 0.4 0.4
1719 1 0.47 0.4 0.4
1769 1 0.48 0.39 0.4
582 1 0.49 0.39 0.4
1819 1 0.49 0.39 0.4
632 1 0.5 0.39 0.4
682 1 0.51 0.39 0.4
1869 1 0.5 0.39 0.4
1919 1 0.51 0.39 0.4
732 1 0.52 0.39 0.4
782 1 0.53 0.4 0.4
1969 1 0.53 0.4 0.4
832 1 0.55 0.4 0.4
2019 1 0.54 0.4 0.4
382 1 0.43 0.42 0.4
1569 1 0.43 0.42 0.4
1619 1 0.44 0.41 0.4
431 1 0.45 0.42 0.39
432 1 0.45 0.41 0.4
481 1 0.46 0.41 0.39
1620 1 0.45 0.42 0.39
1670 1 0.46 0.42 0.39
531 1 0.48 0.41 0.39
1720 1 0.47 0.41 0.39
1770 1 0.48 0.41 0.39
581 1 0.49 0.41 0.39
631 1 0.5 0.41 0.39
681 1 0.5 0.41 0.39
1820 1 0.5 0.41 0.39
1870 1 0.5 0.41 0.39
1920 1 0.51 0.41 0.39
731 1 0.52 0.41 0.39
781 1 0.53 0.41 0.39
1970 1 0.52 0.41 0.39
831 1 0.54 0.42 0.39
881 1 0.55 0.42 0.39
2020 1 0.54 0.41 0.39
2069 1 0.55 0.41 0.4
2070 1 0.55 0.42 0.39
882 1 0.56 0.41 0.4
932 1 0.57 0.42 0.4
2119 1 0.57 0.42 0.4
282 1 0.41 0.44 0.4
332 1 0.42 0.43 0.4
1469 1 0.41 0.44 0.4
1519 1 0.42 0.43 0.4
331 1 0.43 0.44 0.39
381 1 0.44 0.43 0.39
1520 1 0.43 0.44 0.39
1570 1 0.44 0.43 0.39
931 1 0.56 0.43 0.39
981 1 0.57 0.44 0.39
2120 1 0.56 0.43 0.39
2170 1 0.57 0.44 0.39
982 1 0.58 0.43 0.4
1032 1 0.59 0.44 0.4
2169 1 0.58 0.43 0.4
2219 1 0.59 0.44 0.4
182 1 0.4 0.46 0.4
1419 1 0.4 0.46 0.4
231 1 0.42 0.46 0.39
232 1 0.41 0.45 0.4
1420 1 0.42 0.46 0.39
1470 1 0.42 0.45 0.39
281 1 0.43 0.45 0.39
2220 1 0.57 0.45 0.39
1031 1 0.58 0.45 0.39
1081 1 0.58 0.46 0.39
2269 1 0.59 0.45 0.4
2270 1 0.58 0.46 0.39
1082 1 0.6 0.46 0.4
2319 1 0.6 0.46 0.4
132 1 0.4 0.48 0.4
1319 1 0.39 0.48 0.4
1369 1 0.4 0.47 0.4
131 1 0.41 0.48 0.39
181 1 0.41 0.47 0.39
1370 1 0.41 0.47 0.39
1131 1 0.59 0.47 0.39
2320 1 0.59 0.47 0.39
2370 1 0.59 0.48 0.39
1132 1 0.6 0.47 0.4
1182 1 0.61 0.48 0.4
2369 1 0.6 0.48 0.4
82 1 0.39 0.49 0.4
81 1 0.41 0.49 0.39
1320 1 0.41 0.49 0.39
1181 1 0.59 0.49 0.39
2420 1 0.59 0.49 0.39
2419 1 0.61 0.49 0.4
32 1 0.39 0.5 0.4
1219 1 0.39 0.5 0.4
1269 1 0.39 0.5 0.4
2432 1 0.39 0.51 0.4
2482 1 0.39 0.5 0.4
31 1 0.41 0.5 0.39
1170 1 0.41 0.51 0.39
1220 1 0.41 0.5 0.39
1270 1 0.41 0.5 0.39
2431 1 0.41 0.51 0.39
2481 1 0.41 0.5 0.39
20 1 0.59 0.5 0.39
70 1 0.59 0.51 0.39
1231 1 0.59 0.5 0.39
1281 1 0.59 0.5 0.39
1331 1 0.59 0.51 0.39
2470 1 0.59 0.5 0.39
19 1 0.61 0.5 0.4
69 1 0.61 0.51 0.4
1232 1 0.61 0.5 0.4
1282 1 0.61 0.5 0.4
2469 1 0.61 0.5 0.4
1119 1 0.4 0.53 0.4
1169 1 0.39 0.52 0.4
2382 1 0.4 0.52 0.4
1120 1 0.41 0.53 0.39
2331 1 0.41 0.53 0.39
2381 1 0.41 0.52 0.39
120 1 0.59 0.52 0.39
170 1 0.59 0.53 0.39
1381 1 0.59 0.53 0.39
119 1 0.6 0.52 0.4
1332 1 0.61 0.52 0.4
1382 1 0.6 0.53 0.4
1069 1 0.4 0.54 0.4
2332 1 0.4 0.54 0.4
1020 1 0.42 0.55 0.39
1070 1 0.42 0.54 0.39
2281 1 0.42 0.54 0.39
2282 1 0.41 0.55 0.4
2231 1 0.43 0.55 0.39
270 1 0.57 0.55 0.39
219 1 0.59 0.55 0.4
220 1 0.58 0.54 0.39
1431 1 0.58 0.54 0.39
1481 1 0.58 0.55 0.39
169 1 0.6 0.54 0.4
1432 1 0.6 0.54 0.4
969 1 0.42 0.57 0.4
1019 1 0.41 0.56 0.4
2182 1 0.42 0.57 0.4
2232 1 0.41 0.56 0.4
920 1 0.44 0.57 0.39
970 1 0.43 0.56 0.39
2131 1 0.44 0.57 0.39
2181 1 0.43 0.56 0.39
320 1 0.57 0.56 0.39
370 1 0.56 0.57 0.39
1531 1 0.57 0.56 0.39
1581 1 0.56 0.57 0.39
269 1 0.59 0.56 0.4
319 1 0.58 0.57 0.4
1482 1 0.59 0.56 0.4
1532 1 0.58 0.57 0.4
869 1 0.44 0.59 0.4
919 1 0.43 0.58 0.4
2132 1 0.43 0.58 0.4
820 1 0.46 0.58 0.39
870 1 0.45 0.58 0.39
2031 1 0.46 0.59 0.39
2081 1 0.45 0.58 0.39
2082 1 0.45 0.59 0.4
720 1 0.48 0.59 0.39
770 1 0.47 0.59 0.39
1981 1 0.48 0.59 0.39
1931 1 0.49 0.59 0.39
570 1 0.51 0.59 0.39
620 1 0.5 0.59 0.39
670 1 0.5 0.59 0.39
1831 1 0.5 0.59 0.39
1881 1 0.5 0.59 0.39
520 1 0.52 0.59 0.39
1731 1 0.53 0.59 0.39
1781 1 0.52 0.59 0.39
419 1 0.55 0.59 0.4
420 1 0.55 0.58 0.39
470 1 0.54 0.59 0.39
1631 1 0.55 0.58 0.39
1681 1 0.54 0.58 0.39
369 1 0.57 0.58 0.4
1582 1 0.57 0.58 0.4
1632 1 0.56 0.59 0.4
819 1 0.45 0.6 0.4
2032 1 0.46 0.6 0.4
719 1 0.48 0.61 0.4
769 1 0.47 0.6 0.4
1982 1 0.47 0.6 0.4
669 1 0.49 0.61 0.4
1932 1 0.49 0.61 0.4
569 1 0.51 0.61 0.4
619 1 0.5 0.61 0.4
1832 1 0.51 0.61 0.4
1882 1 0.5 0.61 0.4
519 1 0.53 0.6 0.4
1732 1 0.53 0.6 0.4
1782 1 0.52 0.61 0.4
469 1 0.54 0.6 0.4
1682 1 0.55 0.6 0.4
533 1 0.47 0.38 0.42
583 1 0.48 0.38 0.42
1768 1 0.48 0.38 0.42
1818 1 0.49 0.38 0.42
633 1 0.5 0.38 0.42
683 1 0.51 0.38 0.42
1868 1 0.5 0.38 0.42
733 1 0.52 0.38 0.42
1918 1 0.52 0.38 0.42
1968 1 0.53 0.38 0.42
433 1 0.44 0.4 0.42
1618 1 0.43 0.4 0.42
483 1 0.45 0.39 0.42
1668 1 0.45 0.39 0.42
1718 1 0.46 0.39 0.42
783 1 0.54 0.39 0.42
833 1 0.55 0.39 0.42
2018 1 0.55 0.39 0.42
883 1 0.57 0.4 0.42
2068 1 0.56 0.4 0.42
333 1 0.41 0.42 0.42
1518 1 0.41 0.42 0.42
1568 1 0.42 0.41 0.42
383 1 0.43 0.41 0.42
2118 1 0.57 0.41 0.42
933 1 0.58 0.41 0.42
983 1 0.59 0.42 0.42
2168 1 0.59 0.42 0.42
233 1 0.4 0.44 0.42
283 1 0.4 0.43 0.42
1468 1 0.4 0.44 0.42
1033 1 0.6 0.44 0.42
2218 1 0.6 0.43 0.42
2268 1 0.6 0.44 0.42
183 1 0.39 0.46 0.42
1418 1 0.39 0.45 0.42
1083 1 0.61 0.45 0.42
2318 1 0.61 0.46 0.42
133 1 0.38 0.47 0.42
1318 1 0.38 0.48 0.42
1368 1 0.39 0.47 0.42
1133 1 0.61 0.47 0.42
1183 1 0.62 0.48 0.42
2368 1 0.62 0.47 0.42
83 1 0.38 0.49 0.42
2418 1 0.62 0.49 0.42
33 1 0.38 0.5 0.42
1218 1 0.38 0.5 0.42
1268 1 0.38 0.5 0.42
2433 1 0.38 0.51 0.42
2483 1 0.38 0.5 0.42
18 1 0.62 0.5 0.42
68 1 0.62 0.51 0.42
1233 1 0.62 0.5 0.42
1283 1 0.62 0.5 0.42
2468 1 0.62 0.5 0.42
1168 1 0.38 0.52 0.42
2383 1 0.38 0.53 0.42
1118 1 0.39 0.53 0.42
1383 1 0.61 0.53 0.42
118 1 0.62 0.53 0.42
1333 1 0.62 0.52 0.42
1068 1 0.39 0.55 0.42
2333 1 0.39 0.54 0.42
168 1 0.61 0.54 0.42
1433 1 0.61 0.55 0.42
1018 1 0.4 0.56 0.42
2233 1 0.4 0.57 0.42
2283 1 0.4 0.56 0.42
218 1 0.6 0.56 0.42
268 1 0.6 0.57 0.42
1483 1 0.6 0.56 0.42
918 1 0.42 0.59 0.42
968 1 0.41 0.58 0.42
2183 1 0.41 0.58 0.42
2133 1 0.43 0.59 0.42
368 1 0.57 0.59 0.42
318 1 0.59 0.58 0.42
1533 1 0.59 0.58 0.42
1583 1 0.58 0.59 0.42
868 1 0.43 0.6 0.42
2083 1 0.44 0.6 0.42
768 1 0.46 0.61 0.42
818 1 0.45 0.61 0.42
2033 1 0.45 0.61 0.42
468 1 0.55 0.61 0.42
1683 1 0.55 0.61 0.42
1733 1 0.54 0.61 0.42
418 1 0.56 0.6 0.42
1633 1 0.57 0.6 0.42
718 1 0.48 0.62 0.42
1933 1 0.48 0.62 0.42
1983 1 0.47 0.62 0.42
668 1 0.49 0.62 0.42
618 1 0.5 0.62 0.42
1833 1 0.51 0.62 0.42
1883 1 0.5 0.62 0.42
518 1 0.53 0.62 0.42
568 1 0.52 0.62 0.42
1783 1 0.52 0.62 0.42
1667 1 0.44 0.38 0.43
484 1 0.45 0.38 0.43
1717 1 0.46 0.38 0.43
534 1 0.47 0.37 0.43
584 1 0.48 0.37 0.43
1767 1 0.47 0.37 0.43
1817 1 0.49 0.37 0.43
634 1 0.5 0.37 0.43
684 1 0.51 0.37 0.43
1867 1 0.5 0.37 0.43
734 1 0.53 0.37 0.43
1917 1 0.52 0.37 0.43
1967 1 0.53 0.37 0.43
784 1 0.54 0.38 0.43
2017 1 0.55 0.38 0.43
834 1 0.56 0.38 0.43
384 1 0.42 0.4 0.43
1567 1 0.41 0.4 0.43
434 1 0.43 0.39 0.43
1617 1 0.43 0.39 0.43
884 1 0.57 0.39 0.43
2067 1 0.57 0.39 0.43
934 1 0.59 0.4 0.43
2117 1 0.58 0.4 0.43
284 1 0.4 0.42 0.43
1517 1 0.4 0.42 0.43
334 1 0.41 0.41 0.43
2167 1 0.59 0.41 0.43
984 1 0.6 0.42 0.43
2217 1 0.6 0.42 0.43
234 1 0.39 0.44 0.43
1467 1 0.39 0.43 0.43
1034 1 0.61 0.43 0.43
2267 1 0.61 0.44 0.43
184 1 0.38 0.45 0.43
1367 1 0.38 0.46 0.43
1417 1 0.38 0.45 0.43
1084 1 0.62 0.45 0.43
1134 1 0.62 0.46 0.43
2317 1 0.62 0.45 0.43
134 1 0.37 0.47 0.43
1317 1 0.37 0.48 0.43
1184 1 0.63 0.48 0.43
2367 1 0.63 0.47 0.43
84 1 0.37 0.49 0.43
2417 1 0.63 0.49 0.43
34 1 0.37 0.5 0.43
1217 1 0.37 0.5 0.43
1267 1 0.37 0.5 0.43
2434 1 0.37 0.51 0.43
2484 1 0.37 0.5 0.43
17 1 0.63 0.5 0.43
67 1 0.63 0.51 0.43
1234 1 0.63 0.5 0.43
1284 1 0.63 0.5 0.43
2467 1 0.63 0.5 0.43
1167 1 0.37 0.52 0.43
2384 1 0.37 0.53 0.43
117 1 0.63 0.53 0.43
1334 1 0.63 0.52 0.43
1067 1 0.38 0.55 0.43
1117 1 0.38 0.54 0.43
2334 1 0.38 0.55 0.43
167 1 0.62 0.55 0.43
1384 1 0.62 0.54 0.43
1434 1 0.62 0.55 0.43
1017 1 0.39 0.57 0.43
2284 1 0.39 0.56 0.43
217 1 0.61 0.56 0.43
1484 1 0.61 0.57 0.43
967 1 0.4 0.58 0.43
2234 1 0.4 0.58 0.43
2184 1 0.41 0.59 0.43
317 1 0.59 0.59 0.43
267 1 0.6 0.58 0.43
1534 1 0.6 0.58 0.43
917 1 0.41 0.6 0.43
2134 1 0.42 0.6 0.43
867 1 0.43 0.61 0.43
2084 1 0.43 0.61 0.43
417 1 0.57 0.61 0.43
1634 1 0.57 0.61 0.43
367 1 0.58 0.6 0.43
1584 1 0.59 0.6 0.43
817 1 0.44 0.62 0.43
767 1 0.46 0.62 0.43
2034 1 0.45 0.62 0.43
717 1 0.47 0.63 0.43
1934 1 0.48 0.63 0.43
1984 1 0.47 0.63 0.43
667 1 0.49 0.63 0.43
617 1 0.5 0.63 0.43
1834 1 0.51 0.63 0.43
1884 1 0.5 0.63 0.43
517 1 0.53 0.63 0.43
567 1 0.52 0.63 0.43
1784 1 0.53 0.63 0.43
467 1 0.55 0.62 0.43
1734 1 0.54 0.62 0.43
1684 1 0.56 0.62 0.43
585 1 0.48 0.36 0.45
1766 1 0.47 0.36 0.45
1816 1 0.49 0.36 0.45
635 1 0.5 0.36 0.45
685 1 0.51 0.36 0.45
1866 1 0.5 0.36 0.45
735 1 0.53 0.36 0.45
1916 1 0.52 0.36 0.45
435 1 0.43 0.38 0.45
1666 1 0.44 0.38 0.45
485 1 0.45 0.37 0.45
535 1 0.46 0.37 0.45
1716 1 0.46 0.37 0.45
785 1 0.54 0.37 0.45
1966 1 0.54 0.37 0.45
2016 1 0.55 0.37 0.45
835 1 0.56 0.38 0.45
2066 1 0.57 0.38 0.45
385 1 0.42 0.39 0.45
1566 1 0.41 0.4 0.45
1616 1 0.42 0.39 0.45
885 1 0.58 0.39 0.45
935 1 0.59 0.4 0.45
2116 1 0.58 0.39 0.45
285 1 0.39 0.42 0.45
335 1 0.4 0.41 0.45
1516 1 0.4 0.41 0.45
985 1 0.6 0.41 0.45
2166 1 0.6 0.41 0.45
2216 1 0.61 0.42 0.45
235 1 0.38 0.43 0.45
1416 1 0.38 0.44 0.45
1466 1 0.38 0.43 0.45
1035 1 0.62 0.43 0.45
1085 1 0.62 0.44 0.45
2266 1 0.62 0.43 0.45
185 1 0.37 0.45 0.45
1366 1 0.37 0.46 0.45
1135 1 0.63 0.46 0.45
2316 1 0.63 0.45 0.45
1316 1 0.36 0.48 0.45
135 1 0.37 0.47 0.45
2366 1 0.63 0.47 0.45
1185 1 0.64 0.48 0.45
85 1 0.36 0.49 0.45
2416 1 0.64 0.49 0.45
35 1 0.36 0.5 0.45
1216 1 0.36 0.5 0.45
1266 1 0.36 0.5 0.45
2435 1 0.36 0.51 0.45
2485 1 0.36 0.5 0.45
16 1 0.64 0.5 0.45
66 1 0.64 0.51 0.45
1235 1 0.64 0.5 0.45
1285 1 0.64 0.5 0.45
2466 1 0.64 0.5 0.45
1166 1 0.36 0.52 0.45
2385 1 0.37 0.53 0.45
116 1 0.63 0.53 0.45
1335 1 0.64 0.52 0.45
1116 1 0.37 0.54 0.45
2335 1 0.37 0.55 0.45
166 1 0.63 0.55 0.45
1385 1 0.63 0.54 0.45
1016 1 0.38 0.57 0.45
1066 1 0.38 0.56 0.45
2285 1 0.38 0.57 0.45
216 1 0.62 0.57 0.45
1435 1 0.62 0.56 0.45
1485 1 0.62 0.57 0.45
966 1 0.4 0.59 0.45
2185 1 0.4 0.59 0.45
2235 1 0.39 0.58 0.45
266 1 0.61 0.58 0.45
316 1 0.6 0.59 0.45
1535 1 0.6 0.59 0.45
866 1 0.42 0.61 0.45
916 1 0.41 0.6 0.45
2135 1 0.42 0.61 0.45
366 1 0.58 0.61 0.45
1585 1 0.59 0.6 0.45
1635 1 0.58 0.61 0.45
816 1 0.44 0.62 0.45
2085 1 0.43 0.62 0.45
766 1 0.46 0.63 0.45
1985 1 0.46 0.63 0.45
2035 1 0.45 0.63 0.45
466 1 0.55 0.63 0.45
516 1 0.54 0.63 0.45
1735 1 0.54 0.63 0.45
416 1 0.57 0.62 0.45
1685 1 0.56 0.62 0.45
716 1 0.47 0.64 0.45
1935 1 0.48 0.64 0.45
666 1 0.49 0.64 0.45
616 1 0.5 0.64 0.45
1835 1 0.51 0.64 0.45
1885 1 0.5 0.64 0.45
566 1 0.52 0.64 0.45
1785 1 0.53 0.64 0.45
536 1 0.46 0.36 0.47
1715 1 0.45 0.36 0.47
586 1 0.48 0.36 0.47
1765 1 0.47 0.36 0.47
1815 1 0.49 0.36 0.47
636 1 0.5 0.36 0.47
686 1 0.51 0.36 0.47
1865 1 0.5 0.36 0.47
736 1 0.53 0.36 0.47
1915 1 0.52 0.36 0.47
786 1 0.55 0.36 0.47
1965 1 0.54 0.36 0.47
1615 1 0.42 0.38 0.47
436 1 0.43 0.38 0.47
486 1 0.44 0.37 0.47
1665 1 0.44 0.37 0.47
836 1 0.56 0.37 0.47
2015 1 0.56 0.37 0.47
2065 1 0.57 0.38 0.47
886 1 0.58 0.38 0.47
336 1 0.4 0.4 0.47
1565 1 0.4 0.39 0.47
386 1 0.41 0.39 0.47
2115 1 0.59 0.39 0.47
936 1 0.6 0.39 0.47
2165 1 0.6 0.4 0.47
1465 1 0.38 0.42 0.47
286 1 0.39 0.42 0.47
1515 1 0.39 0.41 0.47
986 1 0.61 0.41 0.47
2215 1 0.61 0.42 0.47
1036 1 0.62 0.42 0.47
236 1 0.37 0.43 0.47
1415 1 0.37 0.44 0.47
1086 1 0.63 0.44 0.47
2265 1 0.63 0.43 0.47
1365 1 0.36 0.46 0.47
186 1 0.37 0.45 0.47
2315 1 0.63 0.45 0.47
1136 1 0.64 0.46 0.47
136 1 0.36 0.47 0.47
1315 1 0.36 0.48 0.47
1186 1 0.64 0.48 0.47
2365 1 0.64 0.47 0.47
86 1 0.36 0.49 0.47
2415 1 0.64 0.49 0.47
36 1 0.36 0.5 0.47
1215 1 0.36 0.5 0.47
1265 1 0.36 0.5 0.47
2436 1 0.36 0.51 0.47
2486 1 0.36 0.5 0.47
15 1 0.64 0.5 0.47
65 1 0.64 0.51 0.47
1236 1 0.64 0.5 0.47
1286 1 0.64 0.5 0.47
2465 1 0.64 0.5 0.47
1165 1 0.36 0.52 0.47
2386 1 0.36 0.53 0.47
115 1 0.64 0.53 0.47
1336 1 0.64 0.52 0.47
1115 1 0.36 0.54 0.47
2336 1 0.37 0.55 0.47
165 1 0.63 0.55 0.47
1386 1 0.64 0.54 0.47
1065 1 0.37 0.56 0.47
2286 1 0.37 0.57 0.47
215 1 0.63 0.57 0.47
1436 1 0.63 0.56 0.47
1015 1 0.38 0.58 0.47
965 1 0.39 0.59 0.47
2236 1 0.39 0.58 0.47
265 1 0.61 0.58 0.47
1536 1 0.61 0.59 0.47
1486 1 0.62 0.58 0.47
915 1 0.4 0.61 0.47
2186 1 0.4 0.6 0.47
2136 1 0.41 0.61 0.47
365 1 0.59 0.61 0.47
315 1 0.6 0.6 0.47
1586 1 0.6 0.61 0.47
865 1 0.42 0.62 0.47
815 1 0.44 0.63 0.47
2036 1 0.44 0.63 0.47
2086 1 0.43 0.62 0.47
415 1 0.57 0.62 0.47
465 1 0.56 0.63 0.47
1686 1 0.56 0.63 0.47
1636 1 0.58 0.62 0.47
765 1 0.45 0.64 0.47
1986 1 0.46 0.64 0.47
715 1 0.47 0.64 0.47
1936 1 0.48 0.64 0.47
665 1 0.49 0.64 0.47
615 1 0.5 0.64 0.47
1836 1 0.51 0.64 0.47
1886 1 0.5 0.64 0.47
565 1 0.52 0.64 0.47
1786 1 0.53 0.64 0.47
515 1 0.54 0.64 0.47
1736 1 0.55 0.64 0.47
537 1 0.46 0.36 0.49
1714 1 0.45 0.36 0.49
587 1 0.48 0.35 0.49
1764 1 0.47 0.36 0.49
1814 1 0.49 0.35 0.49
637 1 0.5 0.35 0.49
687 1 0.51 0.35 0.49
1864 1 0.5 0.35 0.49
737 1 0.53 0.36 0.49
1914 1 0.52 0.35 0.49
787 1 0.55 0.36 0.49
1964 1 0.54 0.36 0.49
1614 1 0.42 0.38 0.49
437 1 0.43 0.37 0.49
487 1 0.44 0.37 0.49
1664 1 0.43 0.37 0.49
837 1 0.57 0.37 0.49
2014 1 0.56 0.37 0.49
2064 1 0.57 0.37 0.49
887 1 0.58 0.38 0.49
337 1 0.4 0.4 0.49
1564 1 0.4 0.39 0.49
387 1 0.41 0.39 0.49
2114 1 0.59 0.39 0.49
937 1 0.6 0.39 0.49
2164 1 0.6 0.4 0.49
287 1 0.38 0.41 0.49
1464 1 0.38 0.42 0.49
1514 1 0.39 0.41 0.49
987 1 0.61 0.41 0.49
1037 1 0.62 0.42 0.49
2214 1 0.62 0.41 0.49
237 1 0.37 0.43 0.49
1414 1 0.37 0.44 0.49
1087 1 0.63 0.44 0.49
2264 1 0.63 0.43 0.49
187 1 0.36 0.45 0.49
1364 1 0.36 0.46 0.49
1137 1 0.64 0.46 0.49
2314 1 0.64 0.45 0.49
137 1 0.36 0.47 0.49
1314 1 0.36 0.48 0.49
1187 1 0.64 0.48 0.49
2364 1 0.64 0.47 0.49
87 1 0.35 0.49 0.49
2414 1 0.65 0.49 0.49
37 1 0.35 0.5 0.49
1214 1 0.35 0.5 0.49
1264 1 0.35 0.5 0.49
2437 1 0.35 0.51 0.49
2487 1 0.35 0.5 0.49
14 1 0.65 0.5 0.49
64 1 0.65 0.51 0.49
1237 1 0.65 0.5 0.49
1287 1 0.65 0.5 0.49
2464 1 0.65 0.5 0.49
1164 1 0.36 0.52 0.49
2387 1 0.36 0.53 0.49
114 1 0.64 0.53 0.49
1337 1 0.64 0.52 0.49
1114 1 0.36 0.54 0.49
2337 1 0.36 0.55 0.49
164 1 0.64 0.55 0.49
1387 1 0.64 0.54 0.49
1064 1 0.37 0.56 0.49
2287 1 0.37 0.57 0.49
214 1 0.63 0.57 0.49
1437 1 0.63 0.56 0.49
1014 1 0.38 0.58 0.49
2237 1 0.38 0.59 0.49
964 1 0.39 0.59 0.49
1537 1 0.61 0.59 0.49
264 1 0.62 0.59 0.49
1487 1 0.62 0.58 0.49
914 1 0.4 0.61 0.49
2187 1 0.4 0.6 0.49
2137 1 0.41 0.61 0.49
364 1 0.59 0.61 0.49
314 1 0.6 0.6 0.49
1587 1 0.6 0.61 0.49
864 1 0.42 0.62 0.49
814 1 0.43 0.63 0.49
2037 1 0.44 0.63 0.49
2087 1 0.43 0.63 0.49
414 1 0.57 0.63 0.49
464 1 0.56 0.63 0.49
1687 1 0.57 0.63 0.49
1637 1 0.58 0.62 0.49
764 1 0.45 0.64 0.49
1987 1 0.46 0.64 0.49
714 1 0.47 0.64 0.49
1937 1 0.48 0.65 0.49
664 1 0.49 0.65 0.49
614 1 0.5 0.65 0.49
1837 1 0.51 0.65 0.49
1887 1 0.5 0.65 0.49
564 1 0.52 0.65 0.49
1787 1 0.53 0.64 0.49
514 1 0.54 0.64 0.49
1737 1 0.55 0.64 0.49
538 1 0.46 0.36 0.5
1713 1 0.45 0.36 0.5
588 1 0.48 0.35 0.5
1763 1 0.47 0.36 0.5
1813 1 0.49 0.35 0.5
638 1 0.5 0.35 0.5
688 1 0.51 0.35 0.5
1863 1 0.5 0.35 0.5
738 1 0.53 0.36 0.5
1913 1 0.52 0.35 0.5
788 1 0.55 0.36 0.5
1963 1 0.54 0.36 0.5
1613 1 0.42 0.38 0.5
438 1 0.43 0.37 0.5
488 1 0.44 0.37 0.5
1663 1 0.43 0.37 0.5
838 1 0.57 0.37 0.5
2013 1 0.56 0.37 0.5
2063 1 0.57 0.37 0.5
888 1 0.58 0.38 0.5
338 1 0.4 0.4 0.5
1563 1 0.4 0.39 0.5
388 1 0.41 0.39 0.5
2113 1 0.59 0.39 0.5
938 1 0.6 0.39 0.5
2163 1 0.6 0.4 0.5
288 1 0.38 0.41 0.5
1463 1 0.38 0.42 0.5
1513 1 0.39 0.41 0.5
988 1 0.61 0.41 0.5
1038 1 0.62 0.42 0.5
2213 1 0.62 0.41 0.5
238 1 0.37 0.43 0.5
1413 1 0.37 0.44 0.5
1088 1 0.63 0.44 0.5
2263 1 0.63 0.43 0.5
188 1 0.36 0.45 0.5
1363 1 0.36 0.46 0.5
1138 1 0.64 0.46 0.5
2313 1 0.64 0.45 0.5
138 1 0.36 0.47 0.5
1313 1 0.35 0.48 0.5
1188 1 0.65 0.48 0.5
2363 1 0.64 0.47 0.5
88 1 0.35 0.49 0.5
2413 1 0.65 0.49 0.5
38 1 0.35 0.5 0.5
1213 1 0.35 0.5 0.5
1263 1 0.35 0.5 0.5
2438 1 0.35 0.51 0.5
2488 1 0.35 0.5 0.5
13 1 0.65 0.5 0.5
63 1 0.65 0.51 0.5
1238 1 0.65 0.5 0.5
1288 1 0.65 0.5 0.5
2463 1 0.65 0.5 0.5
1163 1 0.35 0.52 0.5
2388 1 0.36 0.53 0.5
113 1 0.64 0.53 0.5
1338 1 0.65 0.52 0.5
1113 1 0.36 0.54 0.5
2338 1 0.36 0.55 0.5
163 1 0.64 0.55 0.5
1388 1 0.64 0.54 0.5
1063 1 0.37 0.56 0.5
2288 1 0.37 0.57 0.5
213 1 0.63 0.57 0.5
1438 1 0.63 0.56 0.5
1013 1 0.38 0.58 0.5
2238 1 0.38 0.59 0.5
963 1 0.39 0.59 0.5
1538 1 0.61 0.59 0.5
263 1 0.62 0.59 0.5
1488 1 0.62 0.58 0.5
913 1 0.4 0.61 0.5
2188 1 0.4 0.6 0.5
2138 1 0.41 0.61 0.5
363 1 0.59 0.61 0.5
313 1 0.6 0.6 0.5
1588 1 0.6 0.61 0.5
863 1 0.42 0.62 0.5
813 1 0.43 0.63 0.5
2038 1 0.44 0.63 0.5
2088 1 0.43 0.63 0.5
413 1 0.57 0.63 0.5
463 1 0.56 0.63 0.5
1688 1 0.57 0.63 0.5
1638 1 0.58 0.62 0.5
763 1 0.45 0.64 0.5
1988 1 0.46 0.64 0.5
713 1 0.47 0.64 0.5
1938 1 0.48 0.65 0.5
663 1 0.49 0.65 0.5
613 1 0.5 0.65 0.5
1838 1 0.51 0.65 0.5
1888 1 0.5 0.65 0.5
563 1 0.52 0.65 0.5
1788 1 0.53 0.64 0.5
513 1 0.54 0.64 0.5
1738 1 0.55 0.64 0.5
539 1 0.46 0.36 0.52
1712 1 0.45 0.36 0.52
589 1 0.48 0.36 0.52
1762 1 0.47 0.36 0.52
1812 1 0.49 0.35 0.52
639 1 0.5 0.35 0.52
689 1 0.51 0.35 0.52
1862 1 0.5 0.35 0.52
739 1 0.53 0.36 0.52
1912 1 0.52 0.36 0.52
789 1 0.55 0.36 0.52
1962 1 0.54 0.36 0.52
1612 1 0.42 0.38 0.52
439 1 0.43 0.38 0.52
489 1 0.44 0.37 0.52
1662 1 0.44 0.37 0.52
839 1 0.56 0.37 0.52
2012 1 0.56 0.37 0.52
2062 1 0.57 0.38 0.52
889 1 0.58 0.38 0.52
339 1 0.4 0.4 0.52
1562 1 0.4 0.39 0.52
389 1 0.41 0.39 0.52
2112 1 0.59 0.39 0.52
939 1 0.6 0.39 0.52
2162 1 0.6 0.4 0.52
289 1 0.38 0.41 0.52
1462 1 0.38 0.42 0.52
1512 1 0.39 0.41 0.52
989 1 0.61 0.41 0.52
1039 1 0.62 0.42 0.52
2212 1 0.62 0.41 0.52
239 1 0.37 0.43 0.52
1412 1 0.37 0.44 0.52
1089 1 0.63 0.44 0.52
2262 1 0.63 0.43 0.52
189 1 0.36 0.45 0.52
1362 1 0.36 0.46 0.52
1139 1 0.64 0.46 0.52
2312 1 0.64 0.45 0.52
139 1 0.36 0.47 0.52
1312 1 0.36 0.48 0.52
1189 1 0.64 0.48 0.52
2362 1 0.64 0.47 0.52
89 1 0.36 0.49 0.52
2412 1 0.64 0.49 0.52
39 1 0.35 0.5 0.52
1212 1 0.35 0.5 0.52
1262 1 0.35 0.5 0.52
2439 1 0.36 0.51 0.52
2489 1 0.35 0.5 0.52
12 1 0.65 0.5 0.52
62 1 0.64 0.51 0.52
1239 1 0.65 0.5 0.52
1289 1 0.65 0.5 0.52
2462 1 0.65 0.5 0.52
1162 1 0.36 0.52 0.52
2389 1 0.36 0.53 0.52
112 1 0.64 0.53 0.52
1339 1 0.64 0.52 0.52
1112 1 0.36 0.54 0.52
2339 1 0.36 0.55 0.52
162 1 0.64 0.55 0.52
1389 1 0.64 0.54 0.52
1062 1 0.37 0.56 0.52
2289 1 0.37 0.57 0.52
212 1 0.63 0.57 0.52
1439 1 0.63 0.56 0.52
1012 1 0.38 0.58 0.52
2239 1 0.38 0.59 0.52
962 1 0.39 0.59 0.52
1539 1 0.61 0.59 0.52
262 1 0.62 0.59 0.52
1489 1 0.62 0.58 0.52
912 1 0.4 0.61 0.52
2189 1 0.4 0.6 0.52
2139 1 0.41 0.61 0.52
362 1 0.59 0.61 0.52
312 1 0.6 0.6 0.52
1589 1 0.6 0.61 0.52
862 1 0.42 0.62 0.52
812 1 0.44 0.63 0.52
2039 1 0.44 0.63 0.52
2089 1 0.43 0.62 0.52
412 1 0.57 0.62 0.52
462 1 0.56 0.63 0.52
1689 1 0.56 0.63 0.52
1639 1 0.58 0.62 0.52
762 1 0.45 0.64 0.52
1989 1 0.46 0.64 0.52
712 1 0.47 0.64 0.52
1939 1 0.48 0.64 0.52
662 1 0.49 0.65 0.52
612 1 0.5 0.65 0.52
1839 1 0.51 0.65 0.52
1889 1 0.5 0.65 0.52
562 1 0.52 0.64 0.52
1789 1 0.53 0.64 0.52
512 1 0.54 0.64 0.52
1739 1 0.55 0.64 0.52
540 1 0.46 0.36 0.54
590 1 0.48 0.36 0.54
1761 1 0.47 0.36 0.54
1811 1 0.49 0.36 0.54
640 1 0.5 0.36 0.54
690 1 0.51 0.36 0.54
1861 1 0.5 0.36 0.54
740 1 0.53 0.36 0.54
1911 1 0.52 0.36 0.54
1961 1 0.54 0.36 0.54
1611 1 0.42 0.38 0.54
440 1 0.43 0.38 0.54
1661 1 0.44 0.37 0.54
490 1 0.45 0.37 0.54
1711 1 0.45 0.37 0.54